 Entering Gaussian System, Link 0=/opt/temp/g09-b1/g09/g09
 Initial command:
 /opt/temp/g09-b1/g09/l1.exe /tmp/G09-129925.hpcl1-diethylamine/Gau-10899.inp -scrdir=/tmp/G09-129925.hpcl1-diethylamine/
 Entering Link 1 = /opt/temp/g09-b1/g09/l1.exe PID=     10900.
  
 Copyright (c) 1988,1990,1992,1993,1995,1998,2003,2009,2010,
            Gaussian, Inc.  All Rights Reserved.
  
 This is part of the Gaussian(R) 09 program.  It is based on
 the Gaussian(R) 03 system (copyright 2003, Gaussian, Inc.),
 the Gaussian(R) 98 system (copyright 1998, Gaussian, Inc.),
 the Gaussian(R) 94 system (copyright 1995, Gaussian, Inc.),
 the Gaussian 92(TM) system (copyright 1992, Gaussian, Inc.),
 the Gaussian 90(TM) system (copyright 1990, Gaussian, Inc.),
 the Gaussian 88(TM) system (copyright 1988, Gaussian, Inc.),
 the Gaussian 86(TM) system (copyright 1986, Carnegie Mellon
 University), and the Gaussian 82(TM) system (copyright 1983,
 Carnegie Mellon University). Gaussian is a federally registered
 trademark of Gaussian, Inc.
  
 This software contains proprietary and confidential information,
 including trade secrets, belonging to Gaussian, Inc.
  
 This software is provided under written license and may be
 used, copied, transmitted, or stored only in accord with that
 written license.
  
 The following legend is applicable only to US Government
 contracts under FAR:
  
                    RESTRICTED RIGHTS LEGEND
  
 Use, reproduction and disclosure by the US Government is
 subject to restrictions as set forth in subparagraphs (a)
 and (c) of the Commercial Computer Software - Restricted
 Rights clause in FAR 52.227-19.
  
 Gaussian, Inc.
 340 Quinnipiac St., Bldg. 40, Wallingford CT 06492
  
  
 ---------------------------------------------------------------
 Warning -- This program may not be used in any manner that
 competes with the business of Gaussian, Inc. or will provide
 assistance to any competitor of Gaussian, Inc.  The licensee
 of this program is prohibited from giving any competitor of
 Gaussian, Inc. access to this program.  By using this program,
 the user acknowledges that Gaussian, Inc. is engaged in the
 business of creating and licensing software in the field of
 computational chemistry and represents and warrants to the
 licensee that it is not a competitor of Gaussian, Inc. and that
 it will not use this program in any manner prohibited above.
 ---------------------------------------------------------------
  

 Cite this work as:
 Gaussian 09, Revision B.01,
 M. J. Frisch, G. W. Trucks, H. B. Schlegel, G. E. Scuseria, 
 M. A. Robb, J. R. Cheeseman, G. Scalmani, V. Barone, B. Mennucci, 
 G. A. Petersson, H. Nakatsuji, M. Caricato, X. Li, H. P. Hratchian, 
 A. F. Izmaylov, J. Bloino, G. Zheng, J. L. Sonnenberg, M. Hada, 
 M. Ehara, K. Toyota, R. Fukuda, J. Hasegawa, M. Ishida, T. Nakajima, 
 Y. Honda, O. Kitao, H. Nakai, T. Vreven, J. A. Montgomery, Jr., 
 J. E. Peralta, F. Ogliaro, M. Bearpark, J. J. Heyd, E. Brothers, 
 K. N. Kudin, V. N. Staroverov, T. Keith, R. Kobayashi, J. Normand, 
 K. Raghavachari, A. Rendell, J. C. Burant, S. S. Iyengar, J. Tomasi, 
 M. Cossi, N. Rega, J. M. Millam, M. Klene, J. E. Knox, J. B. Cross, 
 V. Bakken, C. Adamo, J. Jaramillo, R. Gomperts, R. E. Stratmann, 
 O. Yazyev, A. J. Austin, R. Cammi, C. Pomelli, J. W. Ochterski, 
 R. L. Martin, K. Morokuma, V. G. Zakrzewski, G. A. Voth, 
 P. Salvador, J. J. Dannenberg, S. Dapprich, A. D. Daniels, 
 O. Farkas, J. B. Foresman, J. V. Ortiz, J. Cioslowski, 
 and D. J. Fox, Gaussian, Inc., Wallingford CT, 2010.
 
 ******************************************
 Gaussian 09:  EM64L-G09RevB.01 12-Aug-2010
                26-Jan-2017 
 ******************************************
 %chk=diethylamine.chk
 %mem=4GB
 %nprocshared=6
 Will use up to    6 processors via shared memory.
 ----------------------------------------------------------------------
 #p opt=maxcycles=100 b3lyp/6-31+g(d,p) nosymm geom=connectivity scf=(f
 ermi,xqc)
 ----------------------------------------------------------------------
 1/6=100,14=-1,18=20,19=15,26=3,38=1,57=2/1,3;
 2/9=110,12=2,15=1,17=6,18=5,40=1/2;
 3/5=1,6=6,7=111,11=2,16=1,25=1,30=1,71=1,74=-5/1,2,3;
 4//1;
 5/5=2,8=3,13=1,22=13,38=5/2,8;
 6/7=2,8=2,9=2,10=2,28=1/1;
 7/30=1/1,2,3,16;
 1/6=100,14=-1,18=20,19=15/3(2);
 2/9=110,15=1/2;
 99//99;
 2/9=110,15=1/2;
 3/5=1,6=6,7=111,11=2,16=1,25=1,30=1,71=1,74=-5/1,2,3;
 4/5=5,16=3/1;
 5/5=2,8=3,13=1,22=13,38=5/2,8;
 7/30=1/1,2,3,16;
 1/6=100,14=-1,18=20,19=15/3(-5);
 2/9=110,15=1/2;
 6/7=2,8=2,9=2,10=2,19=2,28=1/1;
 99/9=1/99;
 Leave Link    1 at Thu Jan 26 12:38:41 2017, MaxMem=  536870912 cpu:       0.0
 (Enter /opt/temp/g09-b1/g09/l101.exe)
 -------------------
 Title Card Required
 -------------------
 Symbolic Z-matrix:
 Charge =  1 Multiplicity = 1
 C                     1.13024   0.14302  -0.01391 
 H                     1.4531   -0.90279  -0.03726 
 H                     1.45295   0.64654  -0.93083 
 H                     0.03647   0.14502  -0.01012 
 C                     1.61796   0.86165   1.23159 
 H                     1.29602   1.90332   1.26335 
 H                     1.2955    0.36838   2.14945 
 N                     3.16679   0.89017   1.28135 
 H                     3.53369   1.84743   1.28885 
 H                     3.57011   0.4174    0.46467 
 C                     3.69298   0.21609   2.47702 
 H                     3.28143   0.67157   3.35342 
 H                     3.42137  -0.81855   2.45175 
 C                     5.22745   0.34347   2.50466 
 H                     5.49919   1.37824   2.52209 
 H                     5.60983  -0.14049   3.379 
 H                     5.63949  -0.11885   1.63209 
 
 NAtoms=     17 NQM=     17 NQMF=      0 NMic=      0 NMicF=      0 NTot=     17.
                    Isotopes and Nuclear Properties:
 (Nuclear quadrupole moments (NQMom) in fm**2, nuclear magnetic moments (NMagM)
  in nuclear magnetons)

  Atom         1           2           3           4           5           6           7           8           9          10
 IAtWgt=          12           1           1           1          12           1           1          14           1           1
 AtmWgt=  12.0000000   1.0078250   1.0078250   1.0078250  12.0000000   1.0078250   1.0078250  14.0030740   1.0078250   1.0078250
 NucSpn=           0           1           1           1           0           1           1           2           1           1
 AtZEff=   0.0000000   0.0000000   0.0000000   0.0000000   0.0000000   0.0000000   0.0000000   0.0000000   0.0000000   0.0000000
 NQMom=    0.0000000   0.0000000   0.0000000   0.0000000   0.0000000   0.0000000   0.0000000   2.0440000   0.0000000   0.0000000
 NMagM=    0.0000000   2.7928460   2.7928460   2.7928460   0.0000000   2.7928460   2.7928460   0.4037610   2.7928460   2.7928460

  Atom        11          12          13          14          15          16          17
 IAtWgt=          12           1           1          12           1           1           1
 AtmWgt=  12.0000000   1.0078250   1.0078250  12.0000000   1.0078250   1.0078250   1.0078250
 NucSpn=           0           1           1           0           1           1           1
 AtZEff=   0.0000000   0.0000000   0.0000000   0.0000000   0.0000000   0.0000000   0.0000000
 NQMom=    0.0000000   0.0000000   0.0000000   0.0000000   0.0000000   0.0000000   0.0000000
 NMagM=    0.0000000   2.7928460   2.7928460   0.0000000   2.7928460   2.7928460   2.7928460
 Leave Link  101 at Thu Jan 26 12:38:41 2017, MaxMem=  536870912 cpu:       0.0
 (Enter /opt/temp/g09-b1/g09/l103.exe)

 GradGradGradGradGradGradGradGradGradGradGradGradGradGradGradGradGradGrad
 Berny optimization.
 Initialization pass.
                           ----------------------------
                           !    Initial Parameters    !
                           ! (Angstroms and Degrees)  !
 --------------------------                            --------------------------
 ! Name  Definition              Value          Derivative Info.                !
 --------------------------------------------------------------------------------
 ! R1    R(1,2)                  1.0948         estimate D2E/DX2                !
 ! R2    R(1,3)                  1.0947         estimate D2E/DX2                !
 ! R3    R(1,4)                  1.0938         estimate D2E/DX2                !
 ! R4    R(1,5)                  1.5184         estimate D2E/DX2                !
 ! R5    R(5,6)                  1.0908         estimate D2E/DX2                !
 ! R6    R(5,7)                  1.0908         estimate D2E/DX2                !
 ! R7    R(5,8)                  1.5499         estimate D2E/DX2                !
 ! R8    R(8,9)                  1.0252         estimate D2E/DX2                !
 ! R9    R(8,10)                 1.0262         estimate D2E/DX2                !
 ! R10   R(8,11)                 1.47           estimate D2E/DX2                !
 ! R11   R(11,12)                1.07           estimate D2E/DX2                !
 ! R12   R(11,13)                1.07           estimate D2E/DX2                !
 ! R13   R(11,14)                1.54           estimate D2E/DX2                !
 ! R14   R(14,15)                1.07           estimate D2E/DX2                !
 ! R15   R(14,16)                1.07           estimate D2E/DX2                !
 ! R16   R(14,17)                1.07           estimate D2E/DX2                !
 ! A1    A(2,1,3)              109.5473         estimate D2E/DX2                !
 ! A2    A(2,1,4)              107.2613         estimate D2E/DX2                !
 ! A3    A(2,1,5)              112.0175         estimate D2E/DX2                !
 ! A4    A(3,1,4)              107.2679         estimate D2E/DX2                !
 ! A5    A(3,1,5)              112.0039         estimate D2E/DX2                !
 ! A6    A(4,1,5)              108.5114         estimate D2E/DX2                !
 ! A7    A(1,5,6)              112.3995         estimate D2E/DX2                !
 ! A8    A(1,5,7)              112.4117         estimate D2E/DX2                !
 ! A9    A(1,5,8)              110.8561         estimate D2E/DX2                !
 ! A10   A(6,5,7)              108.6708         estimate D2E/DX2                !
 ! A11   A(6,5,8)              106.0474         estimate D2E/DX2                !
 ! A12   A(7,5,8)              106.0654         estimate D2E/DX2                !
 ! A13   A(5,8,9)              112.0279         estimate D2E/DX2                !
 ! A14   A(5,8,10)             111.0215         estimate D2E/DX2                !
 ! A15   A(5,8,11)             112.0474         estimate D2E/DX2                !
 ! A16   A(9,8,10)             107.178          estimate D2E/DX2                !
 ! A17   A(9,8,11)             107.1045         estimate D2E/DX2                !
 ! A18   A(10,8,11)            107.1792         estimate D2E/DX2                !
 ! A19   A(8,11,12)            109.4712         estimate D2E/DX2                !
 ! A20   A(8,11,13)            109.4712         estimate D2E/DX2                !
 ! A21   A(8,11,14)            109.4712         estimate D2E/DX2                !
 ! A22   A(12,11,13)           109.4712         estimate D2E/DX2                !
 ! A23   A(12,11,14)           109.4713         estimate D2E/DX2                !
 ! A24   A(13,11,14)           109.4712         estimate D2E/DX2                !
 ! A25   A(11,14,15)           109.4712         estimate D2E/DX2                !
 ! A26   A(11,14,16)           109.4712         estimate D2E/DX2                !
 ! A27   A(11,14,17)           109.4712         estimate D2E/DX2                !
 ! A28   A(15,14,16)           109.4713         estimate D2E/DX2                !
 ! A29   A(15,14,17)           109.4712         estimate D2E/DX2                !
 ! A30   A(16,14,17)           109.4712         estimate D2E/DX2                !
 ! D1    D(2,1,5,6)           -179.7511         estimate D2E/DX2                !
 ! D2    D(2,1,5,7)            -56.759          estimate D2E/DX2                !
 ! D3    D(2,1,5,8)             61.7604         estimate D2E/DX2                !
 ! D4    D(3,1,5,6)             56.6983         estimate D2E/DX2                !
 ! D5    D(3,1,5,7)            179.6904         estimate D2E/DX2                !
 ! D6    D(3,1,5,8)            -61.7902         estimate D2E/DX2                !
 ! D7    D(4,1,5,6)            -61.5264         estimate D2E/DX2                !
 ! D8    D(4,1,5,7)             61.4658         estimate D2E/DX2                !
 ! D9    D(4,1,5,8)            179.9851         estimate D2E/DX2                !
 ! D10   D(1,5,8,9)            119.7113         estimate D2E/DX2                !
 ! D11   D(1,5,8,10)            -0.077          estimate D2E/DX2                !
 ! D12   D(1,5,8,11)          -119.88           estimate D2E/DX2                !
 ! D13   D(6,5,8,9)             -2.5581         estimate D2E/DX2                !
 ! D14   D(6,5,8,10)          -122.3465         estimate D2E/DX2                !
 ! D15   D(6,5,8,11)           117.8505         estimate D2E/DX2                !
 ! D16   D(7,5,8,9)           -117.9929         estimate D2E/DX2                !
 ! D17   D(7,5,8,10)           122.2187         estimate D2E/DX2                !
 ! D18   D(7,5,8,11)             2.4158         estimate D2E/DX2                !
 ! D19   D(5,8,11,12)          -57.0458         estimate D2E/DX2                !
 ! D20   D(5,8,11,13)           62.9542         estimate D2E/DX2                !
 ! D21   D(5,8,11,14)         -177.0458         estimate D2E/DX2                !
 ! D22   D(9,8,11,12)           66.1842         estimate D2E/DX2                !
 ! D23   D(9,8,11,13)         -173.8158         estimate D2E/DX2                !
 ! D24   D(9,8,11,14)          -53.8158         estimate D2E/DX2                !
 ! D25   D(10,8,11,12)        -179.0712         estimate D2E/DX2                !
 ! D26   D(10,8,11,13)         -59.0712         estimate D2E/DX2                !
 ! D27   D(10,8,11,14)          60.9288         estimate D2E/DX2                !
 ! D28   D(8,11,14,15)          59.5544         estimate D2E/DX2                !
 ! D29   D(8,11,14,16)         179.5544         estimate D2E/DX2                !
 ! D30   D(8,11,14,17)         -60.4456         estimate D2E/DX2                !
 ! D31   D(12,11,14,15)        -60.4456         estimate D2E/DX2                !
 ! D32   D(12,11,14,16)         59.5544         estimate D2E/DX2                !
 ! D33   D(12,11,14,17)        179.5544         estimate D2E/DX2                !
 ! D34   D(13,11,14,15)        179.5544         estimate D2E/DX2                !
 ! D35   D(13,11,14,16)        -60.4456         estimate D2E/DX2                !
 ! D36   D(13,11,14,17)         59.5544         estimate D2E/DX2                !
 --------------------------------------------------------------------------------
 Trust Radius=3.00D-01 FncErr=1.00D-07 GrdErr=1.00D-06
 Number of steps in this run=    100 maximum allowed number of steps=    102.
 GradGradGradGradGradGradGradGradGradGradGradGradGradGradGradGradGradGrad

 Leave Link  103 at Thu Jan 26 12:38:41 2017, MaxMem=  536870912 cpu:       0.0
 (Enter /opt/temp/g09-b1/g09/l202.exe)
                          Input orientation:                          
 ---------------------------------------------------------------------
 Center     Atomic      Atomic             Coordinates (Angstroms)
 Number     Number       Type             X           Y           Z
 ---------------------------------------------------------------------
      1          6           0        1.130243    0.143016   -0.013907
      2          1           0        1.453100   -0.902793   -0.037263
      3          1           0        1.452951    0.646542   -0.930830
      4          1           0        0.036465    0.145017   -0.010121
      5          6           0        1.617956    0.861645    1.231594
      6          1           0        1.296024    1.903322    1.263347
      7          1           0        1.295500    0.368375    2.149451
      8          7           0        3.166791    0.890173    1.281347
      9          1           0        3.533687    1.847429    1.288853
     10          1           0        3.570112    0.417396    0.464670
     11          6           0        3.692976    0.216090    2.477023
     12          1           0        3.281431    0.671574    3.353416
     13          1           0        3.421366   -0.818554    2.451750
     14          6           0        5.227450    0.343467    2.504660
     15          1           0        5.499191    1.378239    2.522089
     16          1           0        5.609827   -0.140485    3.379004
     17          1           0        5.639494   -0.118851    1.632088
 ---------------------------------------------------------------------
                    Distance matrix (angstroms):
                    1          2          3          4          5
     1  C    0.000000
     2  H    1.094760   0.000000
     3  H    1.094727   1.788547   0.000000
     4  H    1.093786   1.762242   1.762290   0.000000
     5  C    1.518408   2.179545   2.179352   2.134602   0.000000
     6  H    2.181178   3.096860   2.533483   2.509949   1.090752
     7  H    2.181333   2.534250   3.096821   2.509743   1.090759
     8  N    2.526550   2.808949   2.808973   3.467288   1.549896
     9  H    3.221607   3.694746   3.270869   4.100744   2.155243
    10  H    2.501456   2.544912   2.546036   3.575791   2.143932
    11  C    3.574587   3.548321   4.100788   4.422783   2.504704
    12  H    4.030614   4.161506   4.658190   4.703238   2.702851
    13  H    3.500475   3.174327   4.178877   4.294978   2.750298
    14  C    4.813571   4.718078   5.112855   5.771467   3.862338
    15  H    5.200457   5.303229   5.369366   6.146080   4.122649
    16  H    5.626623   5.434186   6.039346   6.529169   4.642270
    17  H    4.807413   4.574625   4.968049   5.844691   4.158670
                    6          7          8          9         10
     6  H    0.000000
     7  H    1.772355   0.000000
     8  N    2.127572   2.127818   0.000000
     9  H    2.238506   2.817394   1.025187   0.000000
    10  H    2.831490   2.831033   1.026230   1.650939   0.000000
    11  C    3.172560   2.424538   1.470000   2.024447   2.026126
    12  H    3.134873   2.342090   2.086720   2.389286   2.914241
    13  H    3.652121   2.453465   2.086720   2.910741   2.344821
    14  C    4.407961   3.948041   2.457987   2.570782   2.629409
    15  H    4.418909   4.339320   2.686585   2.367323   2.979520
    16  H    5.221307   4.514882   3.380953   3.553997   3.600696
    17  H    4.805297   4.401742   2.693586   2.901463   2.435727
                   11         12         13         14         15
    11  C    0.000000
    12  H    1.070000   0.000000
    13  H    1.070000   1.747303   0.000000
    14  C    1.540000   2.148263   2.148263   0.000000
    15  H    2.148263   2.471627   3.024600   1.070000   0.000000
    16  H    2.148263   2.466075   2.471627   1.070000   1.747303
    17  H    2.148263   3.024600   2.466074   1.070000   1.747303
                   16         17
    16  H    0.000000
    17  H    1.747303   0.000000
 Symmetry turned off by external request.
 Stoichiometry    C4H12N(1+)
 Framework group  C1[X(C4H12N)]
 Deg. of freedom    45
 Full point group                 C1      NOp   1
 Rotational constants (GHZ):     14.3982944      2.0971390      2.0590324
 Leave Link  202 at Thu Jan 26 12:38:41 2017, MaxMem=  536870912 cpu:       0.0
 (Enter /opt/temp/g09-b1/g09/l301.exe)
 Standard basis: 6-31+G(d,p) (6D, 7F)
 Ernie: Thresh=  0.10000D-02 Tol=  0.10000D-05 Strict=F.
 Integral buffers will be    131072 words long.
 Raffenetti 2 integral format.
 Two-electron integral symmetry is turned off.
   155 basis functions,   244 primitive gaussians,   155 cartesian basis functions
    21 alpha electrons       21 beta electrons
       nuclear repulsion energy       198.7415289438 Hartrees.
 IExCor=  402 DFT=T Ex+Corr=B3LYP ExCW=0 ScaHFX=  0.200000
 ScaDFX=  0.800000  0.720000  1.000000  0.810000 ScalE2=  1.000000  1.000000
 IRadAn=      0 IRanWt=     -1 IRanGd=            0 ICorTp=0
 NAtoms=   17 NActive=   17 NUniq=   17 SFac= 1.00D+00 NAtFMM=   50 NAOKFM=F Big=F
 Leave Link  301 at Thu Jan 26 12:38:41 2017, MaxMem=  536870912 cpu:       0.0
 (Enter /opt/temp/g09-b1/g09/l302.exe)
 NPDir=0 NMtPBC=     1 NCelOv=     1 NCel=       1 NClECP=     1 NCelD=      1
         NCelK=      1 NCelE2=     1 NClLst=     1 CellRange=     0.0.
 One-electron integrals computed using PRISM.
 NBasis=   155 RedAO= T  NBF=   155
 NBsUse=   155 1.00D-06 NBFU=   155
 Precomputing XC quadrature grid using
 IXCGrd= 2 IRadAn=           0 IRanWt=          -1 IRanGd=           0 AccXCQ= 0.00D+00.
 NRdTot=    1098 NPtTot=      139560 NUsed=      147480 NTot=      147512
 NSgBfM=   155   155   155   155   155 NAtAll=    17    17.
 Leave Link  302 at Thu Jan 26 12:38:42 2017, MaxMem=  536870912 cpu:       0.6
 (Enter /opt/temp/g09-b1/g09/l303.exe)
 DipDrv:  MaxL=1.
 Leave Link  303 at Thu Jan 26 12:38:42 2017, MaxMem=  536870912 cpu:       0.0
 (Enter /opt/temp/g09-b1/g09/l401.exe)
 Harris functional with IExCor=  402 diagonalized for initial guess.
 ExpMin= 4.38D-02 ExpMax= 4.17D+03 ExpMxC= 6.27D+02 IAcc=2 IRadAn=         0 AccDes= 0.00D+00
 HarFok:  IExCor=  402 AccDes= 0.00D+00 IRadAn=         0 IDoV= 1
 ScaDFX=  1.000000  1.000000  1.000000  1.000000
 FoFCou: FMM=F IPFlag=           0 FMFlag=      100000 FMFlg1=           0
         NFxFlg=           0 DoJE=T BraDBF=F KetDBF=T FulRan=T
         Omega=  0.000000  0.000000  1.000000  0.000000  0.000000 ICntrl=     500 IOpCl=  0
         NMat0=    1 NMatS0=    1 NMatT0=    0 NMatD0=    1 NMtDS0=    0 NMtDT0=    0
         I1Cent=           4 NGrid=           0.
 Symmetry not used in FoFCou.
 Harris En= -214.255853182006    
 Leave Link  401 at Thu Jan 26 12:38:42 2017, MaxMem=  536870912 cpu:       2.4
 (Enter /opt/temp/g09-b1/g09/l502.exe)
 Closed shell SCF:
 Requested convergence on RMS density matrix=1.00D-08 within  64 cycles.
 Requested convergence on MAX density matrix=1.00D-06.
 Requested convergence on             energy=1.00D-06.
 Level shift goal  0.100 maximum shift  0.100.
 No special actions if energy rises.
 Dynamic level shift is on during FON iterations.
 Using DIIS extrapolation, IDIIS=    10.
 Two-electron integral symmetry not used.
       147314 words used for storage of precomputed grid.
 Keep R1 ints in memory in canonical form, NReq=75215060.
 IEnd=      226821 IEndB=      226821 NGot=   536870912 MDV=   463582373
 LenX=   463582373 LenY=   463557907
 Symmetry not used in FoFDir.
 MinBra= 0 MaxBra= 2 Meth= 1.
 IRaf=       0 NMat=   1 IRICut=       1 DoRegI=T DoRafI=F ISym2E= 0 JSym2E=0.

 Cycle   1  Pass 1  IDiag  1:
 E= -214.036993569369    
 DIIS: error= 2.17D-02 at cycle   1 NSaved=   1.
 NSaved= 1 IEnMin= 1 EnMin= -214.036993569369     IErMin= 1 ErrMin= 2.17D-02
 ErrMax= 2.17D-02 EMaxC= 1.00D+00 BMatC= 1.41D-01 BMatP= 1.41D-01
 IDIUse=1 WtCom= 1.00D+00 WtEn= 0.00D+00
 Coeff-Com:  0.100D+01
 Coeff:      0.100D+01
 Gap=     0.332 Goal=     0.100 Shift=    0.000
 T= 1302. Gap= 0.261 NK=0 IS=    1 IE=  155
          NO(<0.9)=   0  NV(>0.1)=   0  21.00e < EF 0.00e >EF  Err=0.0D+00
 GapD=    0.332 DampG=1.000 DampE=0.500 DampFc=0.5000 IDamp=-1.
 Damping current iteration by 5.00D-01
 RMSDP=6.66D-03 MaxDP=1.71D-01              OVMax= 1.64D-01

 Cycle   2  Pass 1  IDiag  1:
 E= -214.108435479834     Delta-E=       -0.071441910465 Rises=F Damp=T
 DIIS: error= 7.18D-03 at cycle   2 NSaved=   2.
 NSaved= 2 IEnMin= 2 EnMin= -214.108435479834     IErMin= 2 ErrMin= 7.18D-03
 ErrMax= 7.18D-03 EMaxC= 1.00D+00 BMatC= 7.11D-03 BMatP= 1.41D-01
 IDIUse=1 WtCom= 1.00D+00 WtEn= 0.00D+00
 Coeff-Com:  0.302D-01 0.970D+00
 Coeff:      0.302D-01 0.970D+00
 Gap=     0.365 Goal=     0.100 Shift=    0.000
 T= 1150. Gap= 0.355 NK=0 IS=    1 IE=  155
          NO(<0.9)=   0  NV(>0.1)=   0  21.00e < EF 0.00e >EF  Err=0.0D+00
 GapD=    0.365 DampG=1.000 DampE=1.000 DampFc=1.0000 IDamp=-1.
 RMSDP=1.79D-03 MaxDP=6.59D-02 DE=-7.14D-02 OVMax= 8.36D-02

 Cycle   3  Pass 1  IDiag  1:
 E= -214.187913314558     Delta-E=       -0.079477834724 Rises=F Damp=F
 DIIS: error= 2.21D-03 at cycle   3 NSaved=   3.
 NSaved= 3 IEnMin= 3 EnMin= -214.187913314558     IErMin= 3 ErrMin= 2.21D-03
 ErrMax= 2.21D-03 EMaxC= 1.00D+00 BMatC= 1.51D-03 BMatP= 7.11D-03
 IDIUse=1 WtCom= 1.00D+00 WtEn= 0.00D+00
 Coeff-Com: -0.256D-01 0.279D+00 0.746D+00
 Coeff:     -0.256D-01 0.279D+00 0.746D+00
 Gap=     0.357 Goal=     0.100 Shift=    0.000
 T=  858. Gap= 0.357 NK=0 IS=    1 IE=  155
          NO(<0.9)=   0  NV(>0.1)=   0  21.00e < EF 0.00e >EF  Err=0.0D+00
 GapD=    0.357 DampG=1.000 DampE=1.000 DampFc=1.0000 IDamp=-1.
 RMSDP=2.79D-04 MaxDP=1.10D-02 DE=-7.95D-02 OVMax= 9.54D-03

 Cycle   4  Pass 1  IDiag  1:
 E= -214.188843770428     Delta-E=       -0.000930455871 Rises=F Damp=F
 DIIS: error= 1.31D-03 at cycle   4 NSaved=   4.
 NSaved= 4 IEnMin= 4 EnMin= -214.188843770428     IErMin= 4 ErrMin= 1.31D-03
 ErrMax= 1.31D-03 EMaxC= 1.00D+00 BMatC= 4.12D-04 BMatP= 1.51D-03
 IDIUse=1 WtCom= 1.00D+00 WtEn= 0.00D+00
 Coeff-Com: -0.148D-01 0.702D-01 0.380D+00 0.564D+00
 Coeff:     -0.148D-01 0.702D-01 0.380D+00 0.564D+00
 Gap=     0.357 Goal=     0.100 Shift=    0.000
 T=  218. Gap= 0.357 NK=0 IS=    1 IE=  155
          NO(<0.9)=   0  NV(>0.1)=   0  21.00e < EF 0.00e >EF  Err=0.0D+00
 GapD=    0.357 DampG=1.000 DampE=1.000 DampFc=1.0000 IDamp=-1.
 RMSDP=1.31D-04 MaxDP=5.05D-03 DE=-9.30D-04 OVMax= 4.81D-03

 Cycle   5  Pass 1  IDiag  1:
 E= -214.189157467786     Delta-E=       -0.000313697358 Rises=F Damp=F
 DIIS: error= 3.23D-04 at cycle   5 NSaved=   5.
 NSaved= 5 IEnMin= 5 EnMin= -214.189157467786     IErMin= 5 ErrMin= 3.23D-04
 ErrMax= 3.23D-04 EMaxC= 1.00D+00 BMatC= 2.41D-05 BMatP= 4.12D-04
 IDIUse=1 WtCom= 1.00D+00 WtEn= 0.00D+00
 Coeff-Com: -0.404D-02 0.736D-02 0.998D-01 0.260D+00 0.637D+00
 Coeff:     -0.404D-02 0.736D-02 0.998D-01 0.260D+00 0.637D+00
 Gap=     0.357 Goal=     0.100 Shift=    0.000
 RMSDP=3.94D-05 MaxDP=9.43D-04 DE=-3.14D-04 OVMax= 1.15D-03

 Cycle   6  Pass 1  IDiag  1:
 E= -214.189179176786     Delta-E=       -0.000021709000 Rises=F Damp=F
 DIIS: error= 3.64D-05 at cycle   6 NSaved=   6.
 NSaved= 6 IEnMin= 6 EnMin= -214.189179176786     IErMin= 6 ErrMin= 3.64D-05
 ErrMax= 3.64D-05 EMaxC= 1.00D+00 BMatC= 3.34D-07 BMatP= 2.41D-05
 IDIUse=1 WtCom= 1.00D+00 WtEn= 0.00D+00
 Coeff-Com: -0.111D-02 0.887D-03 0.265D-01 0.792D-01 0.223D+00 0.672D+00
 Coeff:     -0.111D-02 0.887D-03 0.265D-01 0.792D-01 0.223D+00 0.672D+00
 Gap=     0.357 Goal=     0.100 Shift=    0.000
 RMSDP=6.51D-06 MaxDP=1.01D-04 DE=-2.17D-05 OVMax= 1.58D-04

 Cycle   7  Pass 1  IDiag  1:
 E= -214.189179489502     Delta-E=       -0.000000312716 Rises=F Damp=F
 DIIS: error= 1.15D-05 at cycle   7 NSaved=   7.
 NSaved= 7 IEnMin= 7 EnMin= -214.189179489502     IErMin= 7 ErrMin= 1.15D-05
 ErrMax= 1.15D-05 EMaxC= 1.00D+00 BMatC= 3.03D-08 BMatP= 3.34D-07
 IDIUse=1 WtCom= 1.00D+00 WtEn= 0.00D+00
 Coeff-Com: -0.211D-03-0.257D-04 0.509D-02 0.169D-01 0.513D-01 0.270D+00
 Coeff-Com:  0.657D+00
 Coeff:     -0.211D-03-0.257D-04 0.509D-02 0.169D-01 0.513D-01 0.270D+00
 Coeff:      0.657D+00
 Gap=     0.357 Goal=     0.100 Shift=    0.000
 RMSDP=1.49D-06 MaxDP=4.09D-05 DE=-3.13D-07 OVMax= 4.23D-05

 Cycle   8  Pass 1  IDiag  1:
 E= -214.189179517080     Delta-E=       -0.000000027578 Rises=F Damp=F
 DIIS: error= 3.24D-06 at cycle   8 NSaved=   8.
 NSaved= 8 IEnMin= 8 EnMin= -214.189179517080     IErMin= 8 ErrMin= 3.24D-06
 ErrMax= 3.24D-06 EMaxC= 1.00D+00 BMatC= 2.46D-09 BMatP= 3.03D-08
 IDIUse=1 WtCom= 1.00D+00 WtEn= 0.00D+00
 Coeff-Com:  0.389D-04-0.131D-03-0.905D-03-0.198D-02-0.410D-02 0.332D-01
 Coeff-Com:  0.258D+00 0.716D+00
 Coeff:      0.389D-04-0.131D-03-0.905D-03-0.198D-02-0.410D-02 0.332D-01
 Coeff:      0.258D+00 0.716D+00
 Gap=     0.357 Goal=     0.100 Shift=    0.000
 RMSDP=4.08D-07 MaxDP=1.22D-05 DE=-2.76D-08 OVMax= 1.10D-05

 Cycle   9  Pass 1  IDiag  1:
 E= -214.189179519482     Delta-E=       -0.000000002402 Rises=F Damp=F
 DIIS: error= 2.92D-07 at cycle   9 NSaved=   9.
 NSaved= 9 IEnMin= 9 EnMin= -214.189179519482     IErMin= 9 ErrMin= 2.92D-07
 ErrMax= 2.92D-07 EMaxC= 1.00D+00 BMatC= 3.00D-11 BMatP= 2.46D-09
 IDIUse=1 WtCom= 1.00D+00 WtEn= 0.00D+00
 Coeff-Com:  0.156D-04-0.333D-04-0.353D-03-0.936D-03-0.213D-02 0.234D-02
 Coeff-Com:  0.550D-01 0.190D+00 0.756D+00
 Coeff:      0.156D-04-0.333D-04-0.353D-03-0.936D-03-0.213D-02 0.234D-02
 Coeff:      0.550D-01 0.190D+00 0.756D+00
 Gap=     0.357 Goal=     0.100 Shift=    0.000
 RMSDP=7.10D-08 MaxDP=1.57D-06 DE=-2.40D-09 OVMax= 1.32D-06

 Cycle  10  Pass 1  IDiag  1:
 E= -214.189179519509     Delta-E=       -0.000000000027 Rises=F Damp=F
 DIIS: error= 9.79D-08 at cycle  10 NSaved=  10.
 NSaved=10 IEnMin=10 EnMin= -214.189179519509     IErMin=10 ErrMin= 9.79D-08
 ErrMax= 9.79D-08 EMaxC= 1.00D+00 BMatC= 3.85D-12 BMatP= 3.00D-11
 IDIUse=1 WtCom= 1.00D+00 WtEn= 0.00D+00
 Coeff-Com:  0.424D-05-0.651D-05-0.951D-04-0.278D-03-0.615D-03-0.864D-03
 Coeff-Com:  0.826D-02 0.381D-01 0.305D+00 0.651D+00
 Coeff:      0.424D-05-0.651D-05-0.951D-04-0.278D-03-0.615D-03-0.864D-03
 Coeff:      0.826D-02 0.381D-01 0.305D+00 0.651D+00
 Gap=     0.357 Goal=     0.100 Shift=    0.000
 RMSDP=2.02D-08 MaxDP=4.31D-07 DE=-2.72D-11 OVMax= 5.04D-07

 Cycle  11  Pass 1  IDiag  1:
 E= -214.189179519513     Delta-E=       -0.000000000004 Rises=F Damp=F
 DIIS: error= 3.01D-08 at cycle  11 NSaved=  11.
 NSaved=11 IEnMin=11 EnMin= -214.189179519513     IErMin=11 ErrMin= 3.01D-08
 ErrMax= 3.01D-08 EMaxC= 1.00D+00 BMatC= 3.59D-13 BMatP= 3.85D-12
 IDIUse=1 WtCom= 1.00D+00 WtEn= 0.00D+00
 Coeff-Com:  0.396D-06 0.202D-06-0.944D-05-0.366D-04-0.666D-04-0.529D-03
 Coeff-Com: -0.116D-02 0.190D-03 0.670D-01 0.288D+00 0.647D+00
 Coeff:      0.396D-06 0.202D-06-0.944D-05-0.366D-04-0.666D-04-0.529D-03
 Coeff:     -0.116D-02 0.190D-03 0.670D-01 0.288D+00 0.647D+00
 Gap=     0.357 Goal=     0.100 Shift=    0.000
 RMSDP=5.96D-09 MaxDP=1.06D-07 DE=-3.87D-12 OVMax= 1.27D-07

 SCF Done:  E(RB3LYP) =  -214.189179520     A.U. after   11 cycles
             Convg  =    0.5961D-08             -V/T =  2.0093
 KE= 2.122232515000D+02 PE=-8.835265675787D+02 EE= 2.583726076155D+02
 Leave Link  502 at Thu Jan 26 12:38:49 2017, MaxMem=  536870912 cpu:      32.8
 (Enter /opt/temp/g09-b1/g09/l508.exe)
 QCSCF skips out because SCF is already converged.
 Leave Link  508 at Thu Jan 26 12:38:49 2017, MaxMem=  536870912 cpu:       0.0
 (Enter /opt/temp/g09-b1/g09/l601.exe)
 Copying SCF densities to generalized density rwf, IOpCl= 0 IROHF=0.

 **********************************************************************

            Population analysis using the SCF density.

 **********************************************************************

 Alpha  occ. eigenvalues --  -14.64653 -10.42922 -10.41836 -10.35816 -10.35009
 Alpha  occ. eigenvalues --   -1.19889  -0.97153  -0.92851  -0.84195  -0.82101
 Alpha  occ. eigenvalues --   -0.78039  -0.69152  -0.68384  -0.63576  -0.62643
 Alpha  occ. eigenvalues --   -0.58354  -0.56530  -0.55665  -0.54805  -0.54486
 Alpha  occ. eigenvalues --   -0.53327
 Alpha virt. eigenvalues --   -0.17648  -0.13691  -0.12830  -0.12372  -0.09937
 Alpha virt. eigenvalues --   -0.09677  -0.08388  -0.07671  -0.07373  -0.06724
 Alpha virt. eigenvalues --   -0.06181  -0.04695  -0.03802  -0.03112  -0.02008
 Alpha virt. eigenvalues --   -0.01262  -0.00259   0.00839   0.01181   0.01678
 Alpha virt. eigenvalues --    0.03455   0.04732   0.05392   0.05659   0.06193
 Alpha virt. eigenvalues --    0.07780   0.08016   0.09164   0.10775   0.12647
 Alpha virt. eigenvalues --    0.13516   0.15078   0.18012   0.18416   0.18940
 Alpha virt. eigenvalues --    0.25886   0.42497   0.43882   0.45440   0.46931
 Alpha virt. eigenvalues --    0.48167   0.48421   0.51149   0.52184   0.53153
 Alpha virt. eigenvalues --    0.54875   0.58177   0.62686   0.68320   0.68909
 Alpha virt. eigenvalues --    0.70817   0.73056   0.76221   0.77375   0.79968
 Alpha virt. eigenvalues --    0.80160   0.84408   0.86005   0.87252   0.88283
 Alpha virt. eigenvalues --    0.91522   0.94410   0.95490   0.97175   1.02436
 Alpha virt. eigenvalues --    1.07338   1.10076   1.26050   1.28014   1.32860
 Alpha virt. eigenvalues --    1.39597   1.43335   1.47934   1.48435   1.49727
 Alpha virt. eigenvalues --    1.59472   1.63766   1.66351   1.71283   1.75656
 Alpha virt. eigenvalues --    1.78646   1.85218   1.87458   1.87912   1.91143
 Alpha virt. eigenvalues --    1.93905   1.95100   1.96398   1.97407   1.98193
 Alpha virt. eigenvalues --    2.04216   2.06115   2.07710   2.11869   2.15034
 Alpha virt. eigenvalues --    2.16153   2.19216   2.23506   2.24659   2.32387
 Alpha virt. eigenvalues --    2.35063   2.36670   2.40973   2.48842   2.50225
 Alpha virt. eigenvalues --    2.51677   2.54998   2.58531   2.61976   2.63545
 Alpha virt. eigenvalues --    2.67760   2.69169   2.70642   2.74203   2.77837
 Alpha virt. eigenvalues --    2.78975   2.80819   3.07913   3.09392   3.14529
 Alpha virt. eigenvalues --    3.15084   3.16708   3.19282   3.24383   3.31283
 Alpha virt. eigenvalues --    3.31878   3.34063   3.35997   3.41966   4.00050
 Alpha virt. eigenvalues --    4.19636   4.26493   4.43878   4.46035
          Condensed to atoms (all electrons):
              1          2          3          4          5          6
     1  C    5.164027   0.404968   0.436015   0.390653   0.139240  -0.020202
     2  H    0.404968   0.504080  -0.028575  -0.018859  -0.045369   0.003683
     3  H    0.436015  -0.028575   0.506243  -0.018174  -0.092610  -0.004521
     4  H    0.390653  -0.018859  -0.018174   0.466546  -0.027303  -0.002374
     5  C    0.139240  -0.045369  -0.092610  -0.027303   5.456197   0.384626
     6  H   -0.020202   0.003683  -0.004521  -0.002374   0.384626   0.490704
     7  H   -0.019475  -0.005088   0.004043  -0.001702   0.399584  -0.026610
     8  N    0.017775   0.005110   0.005019   0.001117  -0.038900  -0.021846
     9  H   -0.008237   0.000094  -0.000027  -0.000132   0.009998  -0.004882
    10  H    0.019659   0.001079   0.001418   0.000126  -0.051618   0.002536
    11  C   -0.006603  -0.006847   0.005193   0.000614  -0.042701  -0.003031
    12  H    0.009619   0.000016  -0.000010   0.000009  -0.029047   0.000571
    13  H   -0.009588  -0.000029   0.000025  -0.000036   0.013926   0.000017
    14  C    0.008918   0.000174   0.000780  -0.000082  -0.032479   0.000801
    15  H   -0.000571   0.000000   0.000000   0.000000   0.001395   0.000014
    16  H    0.000475   0.000000   0.000000   0.000000  -0.002930   0.000002
    17  H    0.001109   0.000002   0.000000   0.000000  -0.002657   0.000000
              7          8          9         10         11         12
     1  C   -0.019475   0.017775  -0.008237   0.019659  -0.006603   0.009619
     2  H   -0.005088   0.005110   0.000094   0.001079  -0.006847   0.000016
     3  H    0.004043   0.005019  -0.000027   0.001418   0.005193  -0.000010
     4  H   -0.001702   0.001117  -0.000132   0.000126   0.000614   0.000009
     5  C    0.399584  -0.038900   0.009998  -0.051618  -0.042701  -0.029047
     6  H   -0.026610  -0.021846  -0.004882   0.002536  -0.003031   0.000571
     7  H    0.497953  -0.063583   0.001513   0.002346   0.012843   0.000391
     8  N   -0.063583   6.898767   0.307831   0.331532   0.175384  -0.026680
     9  H    0.001513   0.307831   0.357856  -0.025666  -0.029741  -0.006730
    10  H    0.002346   0.331532  -0.025666   0.351655  -0.031603   0.004888
    11  C    0.012843   0.175384  -0.029741  -0.031603   5.313412   0.377807
    12  H    0.000391  -0.026680  -0.006730   0.004888   0.377807   0.494890
    13  H   -0.000231  -0.038428   0.005231  -0.007084   0.382904  -0.026473
    14  C   -0.001419  -0.051065  -0.003011   0.002057   0.185260  -0.001542
    15  H   -0.000006  -0.000768   0.006483  -0.001123  -0.071553  -0.006151
    16  H   -0.000012  -0.000528   0.000012  -0.000056  -0.034881  -0.002464
    17  H    0.000000   0.005609  -0.001662   0.004712  -0.071219   0.004597
             13         14         15         16         17
     1  C   -0.009588   0.008918  -0.000571   0.000475   0.001109
     2  H   -0.000029   0.000174   0.000000   0.000000   0.000002
     3  H    0.000025   0.000780   0.000000   0.000000   0.000000
     4  H   -0.000036  -0.000082   0.000000   0.000000   0.000000
     5  C    0.013926  -0.032479   0.001395  -0.002930  -0.002657
     6  H    0.000017   0.000801   0.000014   0.000002   0.000000
     7  H   -0.000231  -0.001419  -0.000006  -0.000012   0.000000
     8  N   -0.038428  -0.051065  -0.000768  -0.000528   0.005609
     9  H    0.005231  -0.003011   0.006483   0.000012  -0.001662
    10  H   -0.007084   0.002057  -0.001123  -0.000056   0.004712
    11  C    0.382904   0.185260  -0.071553  -0.034881  -0.071219
    12  H   -0.026473  -0.001542  -0.006151  -0.002464   0.004597
    13  H    0.488563  -0.014909   0.004523  -0.002146  -0.006104
    14  C   -0.014909   5.145385   0.428120   0.412930   0.425786
    15  H    0.004523   0.428120   0.519799  -0.018793  -0.032991
    16  H   -0.002146   0.412930  -0.018793   0.460479  -0.019102
    17  H   -0.006104   0.425786  -0.032991  -0.019102   0.518796
 Mulliken atomic charges:
              1
     1  C   -0.527782
     2  H    0.185560
     3  H    0.185180
     4  H    0.209598
     5  C   -0.039351
     6  H    0.200512
     7  H    0.199452
     8  N   -0.506347
     9  H    0.391070
    10  H    0.395142
    11  C   -0.155237
    12  H    0.206309
    13  H    0.209838
    14  C   -0.505702
    15  H    0.171623
    16  H    0.207014
    17  H    0.173122
 Sum of Mulliken atomic charges =   1.00000
 Mulliken charges with hydrogens summed into heavy atoms:
              1
     1  C    0.052555
     5  C    0.360613
     8  N    0.279864
    11  C    0.260910
    14  C    0.046057
 Sum of Mulliken charges with hydrogens summed into heavy atoms =   1.00000
 Electronic spatial extent (au):  <R**2>=           2346.4170
 Charge=              1.0000 electrons
 Dipole moment (field-independent basis, Debye):
    X=             14.5478    Y=              3.4071    Z=              6.7051  Tot=             16.3770
 Quadrupole moment (field-independent basis, Debye-Ang):
   XX=             21.6502   YY=            -25.8930   ZZ=            -17.0267
   XY=             10.1031   XZ=             23.9459   YZ=              4.3262
 Traceless Quadrupole moment (field-independent basis, Debye-Ang):
   XX=             28.7400   YY=            -18.8031   ZZ=             -9.9369
   XY=             10.1031   XZ=             23.9459   YZ=              4.3262
 Octapole moment (field-independent basis, Debye-Ang**2):
  XXX=            -71.2896  YYY=            -34.3920  ZZZ=           -103.8892  XYY=            -76.1162
  XXY=             18.7039  XXZ=             49.3307  XZZ=            -38.1885  YZZ=             -8.7771
  YYZ=            -39.1233  XYZ=             13.0317
 Hexadecapole moment (field-independent basis, Debye-Ang**3):
 XXXX=          -1309.0343 YYYY=           -100.1087 ZZZZ=           -556.1092 XXXY=            -12.2124
 XXXZ=           -128.1382 YYYX=            -95.0479 YYYZ=            -52.5090 ZZZX=           -394.6962
 ZZZY=            -59.8395 XXYY=           -325.1521 XXZZ=           -237.4971 YYZZ=           -120.2079
 XXYZ=             21.3914 YYXZ=           -156.3806 ZZXY=            -25.7410
 N-N= 1.987415289438D+02 E-N=-8.835265653229D+02  KE= 2.122232515000D+02
 No NMR shielding tensors so no spin-rotation constants.
 Leave Link  601 at Thu Jan 26 12:38:49 2017, MaxMem=  536870912 cpu:       0.5
 (Enter /opt/temp/g09-b1/g09/l701.exe)
 Compute integral first derivatives.
 ... and contract with generalized density number  0.
 Leave Link  701 at Thu Jan 26 12:38:49 2017, MaxMem=  536870912 cpu:       0.5
 (Enter /opt/temp/g09-b1/g09/l702.exe)
 L702 exits ... SP integral derivatives will be done elsewhere.
 Leave Link  702 at Thu Jan 26 12:38:49 2017, MaxMem=  536870912 cpu:       0.0
 (Enter /opt/temp/g09-b1/g09/l703.exe)
 Compute integral first derivatives, UseDBF=F ICtDFT=           0.
 Integral derivatives from FoFDir, PRISM(SPDF).
 Calling FoFJK, ICntrl=      2127 FMM=F ISym2X=0 I1Cent= 0 IOpClX= 0 NMat=1 NMatS=1 NMatT=0.
 FoFCou: FMM=F IPFlag=           0 FMFlag=      100000 FMFlg1=         800
         NFxFlg=           0 DoJE=F BraDBF=F KetDBF=F FulRan=T
         Omega=  0.000000  0.000000  1.000000  0.000000  0.000000 ICntrl=    2127 IOpCl=  0
         NMat0=    1 NMatS0=    1 NMatT0=    0 NMatD0=    1 NMtDS0=    0 NMtDT0=    0
         I1Cent=           0 NGrid=           0.
 Symmetry not used in FoFCou.
 Leave Link  703 at Thu Jan 26 12:38:51 2017, MaxMem=  536870912 cpu:       9.4
 (Enter /opt/temp/g09-b1/g09/l716.exe)
 Dipole        = 5.72354477D+00 1.34045898D+00 2.63799984D+00
 -------------------------------------------------------------------
 Center     Atomic                   Forces (Hartrees/Bohr)
 Number     Number              X              Y              Z
 -------------------------------------------------------------------
      1        6          -0.002317204    0.000694557   -0.000263959
      2        1           0.000384567   -0.000052953   -0.000048823
      3        1           0.000160405   -0.000192681    0.000117706
      4        1          -0.000007974   -0.000381582   -0.000379920
      5        6           0.004944747    0.003934670   -0.006723082
      6        1          -0.001182532    0.000277054   -0.000323071
      7        1           0.000468644   -0.000110059   -0.000447299
      8        7          -0.014307429    0.000051534   -0.002109639
      9        1          -0.003461870    0.000750679   -0.004813906
     10        1          -0.003318254    0.003957856   -0.002932128
     11        6           0.038109208   -0.002580934    0.011095535
     12        1          -0.010420263    0.007409696    0.010085390
     13        1          -0.009221999   -0.013748135   -0.002416653
     14        6          -0.026059173   -0.001680799   -0.002537184
     15        1           0.008467523    0.015941370    0.002124673
     16        1           0.006972600   -0.006344053    0.011743108
     17        1           0.010789006   -0.007926222   -0.012170748
 -------------------------------------------------------------------
 Cartesian Forces:  Max     0.038109208 RMS     0.008937384
 Leave Link  716 at Thu Jan 26 12:38:51 2017, MaxMem=  536870912 cpu:       0.0
 (Enter /opt/temp/g09-b1/g09/l103.exe)

 GradGradGradGradGradGradGradGradGradGradGradGradGradGradGradGradGradGrad
 Berny optimization.
 Internal  Forces:  Max     0.025340990 RMS     0.005514532
 Search for a local minimum.
 Step number   1 out of a maximum of  100
 All quantities printed in internal units (Hartrees-Bohrs-Radians)
 RMS Force = .55145D-02 SwitMx=.10000D-02 MixMth= 1
 Mixed Optimization -- RFO/linear search
 Second derivative matrix not updated -- first step.
 ITU=  0
     Eigenvalues ---    0.00230   0.00237   0.00522   0.00766   0.03711
     Eigenvalues ---    0.03806   0.04042   0.04835   0.04845   0.05076
     Eigenvalues ---    0.05387   0.05720   0.05720   0.05904   0.07805
     Eigenvalues ---    0.08046   0.08359   0.11775   0.11899   0.12139
     Eigenvalues ---    0.16000   0.16000   0.16000   0.16000   0.16000
     Eigenvalues ---    0.16000   0.21910   0.21937   0.21950   0.27660
     Eigenvalues ---    0.28519   0.30520   0.34268   0.34272   0.34379
     Eigenvalues ---    0.34725   0.34726   0.35740   0.37230   0.37230
     Eigenvalues ---    0.37230   0.37230   0.37230   0.43359   0.43521
 RFO step:  Lambda=-9.29730009D-03 EMin= 2.30000000D-03
 Linear search not attempted -- first point.
 Iteration  1 RMS(Cart)=  0.04354750 RMS(Int)=  0.00104721
 Iteration  2 RMS(Cart)=  0.00098847 RMS(Int)=  0.00066657
 Iteration  3 RMS(Cart)=  0.00000243 RMS(Int)=  0.00066657
 Iteration  4 RMS(Cart)=  0.00000000 RMS(Int)=  0.00066657
 Variable       Old X    -DE/DX   Delta X   Delta X   Delta X     New X
                                 (Linear)    (Quad)   (Total)
    R1        2.06880   0.00017   0.00000   0.00048   0.00048   2.06927
    R2        2.06873  -0.00014   0.00000  -0.00040  -0.00040   2.06833
    R3        2.06696   0.00001   0.00000   0.00002   0.00002   2.06697
    R4        2.86938   0.00102   0.00000   0.00323   0.00323   2.87261
    R5        2.06122   0.00060   0.00000   0.00169   0.00169   2.06292
    R6        2.06124  -0.00047   0.00000  -0.00131  -0.00131   2.05993
    R7        2.92888  -0.00227   0.00000  -0.00793  -0.00793   2.92095
    R8        1.93732  -0.00057   0.00000  -0.00129  -0.00129   1.93603
    R9        1.93929  -0.00079   0.00000  -0.00179  -0.00179   1.93750
   R10        2.77790   0.02534   0.00000   0.06911   0.06911   2.84700
   R11        2.02201   0.01542   0.00000   0.04042   0.04042   2.06243
   R12        2.02201   0.01569   0.00000   0.04112   0.04112   2.06312
   R13        2.91018   0.00015   0.00000   0.00052   0.00052   2.91070
   R14        2.02201   0.01760   0.00000   0.04613   0.04613   2.06814
   R15        2.02201   0.01496   0.00000   0.03919   0.03919   2.06120
   R16        2.02201   0.01750   0.00000   0.04587   0.04587   2.06787
    A1        1.91196  -0.00005   0.00000  -0.00271  -0.00272   1.90924
    A2        1.87206  -0.00016   0.00000  -0.00002  -0.00001   1.87205
    A3        1.95507  -0.00038   0.00000  -0.00317  -0.00318   1.95190
    A4        1.87218  -0.00018   0.00000   0.00073   0.00072   1.87290
    A5        1.95484  -0.00011   0.00000  -0.00121  -0.00122   1.95362
    A6        1.89388   0.00090   0.00000   0.00674   0.00673   1.90062
    A7        1.96174  -0.00115   0.00000  -0.00659  -0.00665   1.95509
    A8        1.96195  -0.00019   0.00000  -0.00280  -0.00280   1.95915
    A9        1.93480   0.00155   0.00000   0.00746   0.00745   1.94226
   A10        1.89666   0.00034   0.00000   0.00013   0.00013   1.89679
   A11        1.85088   0.00049   0.00000   0.00887   0.00888   1.85976
   A12        1.85119  -0.00100   0.00000  -0.00646  -0.00644   1.84475
   A13        1.95526  -0.00552   0.00000  -0.03965  -0.04157   1.91369
   A14        1.93769  -0.00575   0.00000  -0.04266  -0.04453   1.89316
   A15        1.95560   0.01107   0.00000   0.05972   0.05966   2.01525
   A16        1.87061   0.00079   0.00000  -0.02714  -0.02934   1.84127
   A17        1.86933  -0.00046   0.00000   0.02491   0.02564   1.89497
   A18        1.87063  -0.00015   0.00000   0.02611   0.02695   1.89758
   A19        1.91063  -0.00502   0.00000  -0.03979  -0.04085   1.86978
   A20        1.91063  -0.00525   0.00000  -0.04271  -0.04370   1.86693
   A21        1.91063   0.00770   0.00000   0.03751   0.03771   1.94834
   A22        1.91063   0.00083   0.00000  -0.00909  -0.01120   1.89944
   A23        1.91063   0.00084   0.00000   0.02738   0.02785   1.93848
   A24        1.91063   0.00090   0.00000   0.02671   0.02724   1.93787
   A25        1.91063   0.00500   0.00000   0.03251   0.03196   1.94259
   A26        1.91063   0.00007   0.00000  -0.00587  -0.00574   1.90489
   A27        1.91063   0.00524   0.00000   0.03427   0.03372   1.94435
   A28        1.91063  -0.00345   0.00000  -0.02703  -0.02691   1.88372
   A29        1.91063  -0.00339   0.00000  -0.00742  -0.00853   1.90210
   A30        1.91063  -0.00347   0.00000  -0.02645  -0.02634   1.88430
    D1       -3.13725   0.00025   0.00000  -0.00020  -0.00021  -3.13746
    D2       -0.99063  -0.00032   0.00000  -0.00715  -0.00714  -0.99777
    D3        1.07792  -0.00066   0.00000  -0.01213  -0.01211   1.06581
    D4        0.98957   0.00069   0.00000   0.00667   0.00665   0.99622
    D5        3.13619   0.00012   0.00000  -0.00029  -0.00028   3.13591
    D6       -1.07844  -0.00023   0.00000  -0.00526  -0.00525  -1.08370
    D7       -1.07384   0.00040   0.00000   0.00219   0.00217  -1.07167
    D8        1.07278  -0.00017   0.00000  -0.00477  -0.00476   1.06802
    D9        3.14133  -0.00052   0.00000  -0.00974  -0.00973   3.13160
   D10        2.08936  -0.00350   0.00000  -0.05156  -0.05042   2.03894
   D11       -0.00134   0.00317   0.00000   0.03898   0.03786   0.03651
   D12       -2.09230  -0.00017   0.00000  -0.00526  -0.00521  -2.09751
   D13       -0.04465  -0.00331   0.00000  -0.05348  -0.05238  -0.09702
   D14       -2.13535   0.00336   0.00000   0.03707   0.03590  -2.09945
   D15        2.05688   0.00002   0.00000  -0.00717  -0.00717   2.04971
   D16       -2.05937  -0.00346   0.00000  -0.05473  -0.05360  -2.11297
   D17        2.13312   0.00321   0.00000   0.03582   0.03467   2.16779
   D18        0.04216  -0.00013   0.00000  -0.00842  -0.00839   0.03377
   D19       -0.99564   0.00233   0.00000   0.01508   0.01426  -0.98138
   D20        1.09876  -0.00294   0.00000  -0.04658  -0.04577   1.05299
   D21       -3.09003  -0.00034   0.00000  -0.01705  -0.01707  -3.10710
   D22        1.15513   0.00212   0.00000   0.02037   0.02010   1.17523
   D23       -3.03366  -0.00315   0.00000  -0.04129  -0.03992  -3.07358
   D24       -0.93926  -0.00055   0.00000  -0.01176  -0.01122  -0.95049
   D25       -3.12538   0.00274   0.00000   0.01369   0.01234  -3.11304
   D26       -1.03099  -0.00253   0.00000  -0.04797  -0.04768  -1.07867
   D27        1.06341   0.00006   0.00000  -0.01844  -0.01898   1.04442
   D28        1.03942   0.00120   0.00000   0.02090   0.02124   1.06066
   D29        3.13382   0.00008   0.00000   0.00411   0.00412   3.13794
   D30       -1.05497  -0.00092   0.00000  -0.01090  -0.01120  -1.06618
   D31       -1.05497   0.00212   0.00000   0.02991   0.03008  -1.02490
   D32        1.03942   0.00100   0.00000   0.01311   0.01296   1.05238
   D33        3.13382   0.00000   0.00000  -0.00189  -0.00236   3.13145
   D34        3.13382   0.00003   0.00000   0.00792   0.00838  -3.14099
   D35       -1.05497  -0.00108   0.00000  -0.00887  -0.00874  -1.06371
   D36        1.03942  -0.00208   0.00000  -0.02388  -0.02406   1.01536
         Item               Value     Threshold  Converged?
 Maximum Force            0.025341     0.000450     NO 
 RMS     Force            0.005515     0.000300     NO 
 Maximum Displacement     0.168435     0.001800     NO 
 RMS     Displacement     0.043702     0.001200     NO 
 Predicted change in Energy=-4.846601D-03
 GradGradGradGradGradGradGradGradGradGradGradGradGradGradGradGradGradGrad

 Leave Link  103 at Thu Jan 26 12:38:51 2017, MaxMem=  536870912 cpu:       0.0
 (Enter /opt/temp/g09-b1/g09/l202.exe)
                          Input orientation:                          
 ---------------------------------------------------------------------
 Center     Atomic      Atomic             Coordinates (Angstroms)
 Number     Number       Type             X           Y           Z
 ---------------------------------------------------------------------
      1          6           0        1.112148    0.147434   -0.034057
      2          1           0        1.440239   -0.896999   -0.057930
      3          1           0        1.444311    0.653617   -0.945872
      4          1           0        0.018399    0.144334   -0.043571
      5          6           0        1.591567    0.862170    1.218969
      6          1           0        1.262596    1.902670    1.247829
      7          1           0        1.258775    0.365414    2.130412
      8          7           0        3.135189    0.885978    1.295436
      9          1           0        3.466926    1.854631    1.259816
     10          1           0        3.509103    0.437198    0.452828
     11          6           0        3.734195    0.217786    2.505586
     12          1           0        3.297550    0.694282    3.385031
     13          1           0        3.421501   -0.827911    2.479616
     14          6           0        5.269929    0.335401    2.517255
     15          1           0        5.588323    1.382135    2.543896
     16          1           0        5.659581   -0.156896    3.409180
     17          1           0        5.714231   -0.149643    1.642750
 ---------------------------------------------------------------------
                    Distance matrix (angstroms):
                    1          2          3          4          5
     1  C    0.000000
     2  H    1.095013   0.000000
     3  H    1.094514   1.786859   0.000000
     4  H    1.093795   1.762444   1.762595   0.000000
     5  C    1.520119   2.179001   2.179843   2.141063   0.000000
     6  H    2.178696   3.094303   2.530904   2.511471   1.091648
     7  H    2.180353   2.532876   3.095320   2.512690   1.090067
     8  N    2.530947   2.807750   2.817183   3.472370   1.545699
     9  H    3.183333   3.662701   3.224665   4.064022   2.122174
    10  H    2.463009   2.514190   2.503310   3.537965   2.108203
    11  C    3.651008   3.616157   4.164862   4.506743   2.580982
    12  H    4.094531   4.223241   4.710930   4.776043   2.762316
    13  H    3.550064   3.220142   4.223526   4.346589   2.791821
    14  C    4.881768   4.776705   5.170093   5.845759   3.936163
    15  H    5.310976   5.400977   5.466448   6.265077   4.242624
    16  H    5.712061   5.511030   6.114892   6.620813   4.731201
    17  H    4.907047   4.660243   5.057510   5.947487   4.266113
                    6          7          8          9         10
     6  H    0.000000
     7  H    1.772604   0.000000
     8  N    2.131322   2.118750   0.000000
     9  H    2.204886   2.802078   1.024504   0.000000
    10  H    2.797576   2.807743   1.025282   1.631602   0.000000
    11  C    3.244933   2.508038   1.506569   2.074280   2.076686
    12  H    3.188867   2.416366   2.104641   2.427270   2.951044
    13  H    3.692458   2.494665   2.102777   2.947204   2.390825
    14  C    4.486256   4.029877   2.520534   2.672084   2.715277
    15  H    4.545620   4.466506   2.796907   2.524369   3.096551
    16  H    5.314765   4.612499   3.453701   3.670660   3.703717
    17  H    4.917826   4.511562   2.800821   3.035479   2.573497
                   11         12         13         14         15
    11  C    0.000000
    12  H    1.091390   0.000000
    13  H    1.091757   1.775447   0.000000
    14  C    1.540275   2.184516   2.184353   0.000000
    15  H    2.189741   2.535407   3.095732   1.094412   0.000000
    16  H    2.159625   2.510832   2.514628   1.090741   1.767034
    17  H    2.190898   3.096466   2.533181   1.094272   1.781646
                   16         17
    16  H    0.000000
    17  H    1.767290   0.000000
 Symmetry turned off by external request.
 Stoichiometry    C4H12N(1+)
 Framework group  C1[X(C4H12N)]
 Deg. of freedom    45
 Full point group                 C1      NOp   1
 Rotational constants (GHZ):     14.3257850      2.0294563      1.9901256
 Leave Link  202 at Thu Jan 26 12:38:51 2017, MaxMem=  536870912 cpu:       0.0
 (Enter /opt/temp/g09-b1/g09/l301.exe)
 Standard basis: 6-31+G(d,p) (6D, 7F)
 Ernie: Thresh=  0.10000D-02 Tol=  0.10000D-05 Strict=F.
 Integral buffers will be    131072 words long.
 Raffenetti 2 integral format.
 Two-electron integral symmetry is turned off.
   155 basis functions,   244 primitive gaussians,   155 cartesian basis functions
    21 alpha electrons       21 beta electrons
       nuclear repulsion energy       196.5654947849 Hartrees.
 IExCor=  402 DFT=T Ex+Corr=B3LYP ExCW=0 ScaHFX=  0.200000
 ScaDFX=  0.800000  0.720000  1.000000  0.810000 ScalE2=  1.000000  1.000000
 IRadAn=      0 IRanWt=     -1 IRanGd=            0 ICorTp=0
 NAtoms=   17 NActive=   17 NUniq=   17 SFac= 1.00D+00 NAtFMM=   50 NAOKFM=F Big=F
 Leave Link  301 at Thu Jan 26 12:38:51 2017, MaxMem=  536870912 cpu:       0.0
 (Enter /opt/temp/g09-b1/g09/l302.exe)
 NPDir=0 NMtPBC=     1 NCelOv=     1 NCel=       1 NClECP=     1 NCelD=      1
         NCelK=      1 NCelE2=     1 NClLst=     1 CellRange=     0.0.
 One-electron integrals computed using PRISM.
 NBasis=   155 RedAO= T  NBF=   155
 NBsUse=   155 1.00D-06 NBFU=   155
 Precomputing XC quadrature grid using
 IXCGrd= 2 IRadAn=           0 IRanWt=          -1 IRanGd=           0 AccXCQ= 0.00D+00.
 NRdTot=    1098 NPtTot=      139560 NUsed=      147480 NTot=      147512
 NSgBfM=   155   155   155   155   155 NAtAll=    17    17.
 Leave Link  302 at Thu Jan 26 12:38:51 2017, MaxMem=  536870912 cpu:       0.6
 (Enter /opt/temp/g09-b1/g09/l303.exe)
 DipDrv:  MaxL=1.
 Leave Link  303 at Thu Jan 26 12:38:51 2017, MaxMem=  536870912 cpu:       0.0
 (Enter /opt/temp/g09-b1/g09/l401.exe)
 Initial guess read from the read-write file.
 B after Tr=     0.000000    0.000000    0.000000
         Rot=    1.000000    0.000000    0.000000    0.000000 Ang=   0.00 deg.
 Guess basis will be translated and rotated to current coordinates.
 Generating alternative initial guess.
 Harris functional with IExCor=  402 diagonalized for initial guess.
 ExpMin= 4.38D-02 ExpMax= 4.17D+03 ExpMxC= 6.27D+02 IAcc=2 IRadAn=         0 AccDes= 0.00D+00
 HarFok:  IExCor=  402 AccDes= 0.00D+00 IRadAn=         0 IDoV= 1
 ScaDFX=  1.000000  1.000000  1.000000  1.000000
 FoFCou: FMM=F IPFlag=           0 FMFlag=      100000 FMFlg1=           0
         NFxFlg=           0 DoJE=T BraDBF=F KetDBF=T FulRan=T
         Omega=  0.000000  0.000000  1.000000  0.000000  0.000000 ICntrl=     500 IOpCl=  0
         NMat0=    1 NMatS0=    1 NMatT0=    0 NMatD0=    1 NMtDS0=    0 NMtDT0=    0
         I1Cent=           4 NGrid=           0.
 Symmetry not used in FoFCou.
 Harris En= -214.252243746571    
 Leave Link  401 at Thu Jan 26 12:38:52 2017, MaxMem=  536870912 cpu:       2.3
 (Enter /opt/temp/g09-b1/g09/l502.exe)
 Closed shell SCF:
 Requested convergence on RMS density matrix=1.00D-08 within  64 cycles.
 Requested convergence on MAX density matrix=1.00D-06.
 Requested convergence on             energy=1.00D-06.
 Level shift goal  0.100 maximum shift  0.100.
 No special actions if energy rises.
 Dynamic level shift is on during FON iterations.
 Using DIIS extrapolation, IDIIS=    10.
 Two-electron integral symmetry not used.
       147314 words used for storage of precomputed grid.
 Keep R1 ints in memory in canonical form, NReq=75215060.
 IEnd=      226821 IEndB=      226821 NGot=   536870912 MDV=   463582373
 LenX=   463582373 LenY=   463557907
 Symmetry not used in FoFDir.
 MinBra= 0 MaxBra= 2 Meth= 1.
 IRaf=       0 NMat=   1 IRICut=       1 DoRegI=T DoRafI=F ISym2E= 0 JSym2E=0.

 Cycle   1  Pass 1  IDiag  1:
 E= -214.192277300126    
 DIIS: error= 1.81D-03 at cycle   1 NSaved=   1.
 NSaved= 1 IEnMin= 1 EnMin= -214.192277300126     IErMin= 1 ErrMin= 1.81D-03
 ErrMax= 1.81D-03 EMaxC= 1.00D+00 BMatC= 1.30D-03 BMatP= 1.30D-03
 IDIUse=1 WtCom= 1.00D+00 WtEn= 0.00D+00
 Coeff-Com:  0.100D+01
 Coeff:      0.100D+01
 Gap=     0.363 Goal=     0.100 Shift=    0.000
 GapD=    0.363 DampG=1.000 DampE=1.000 DampFc=1.0000 IDamp=-1.
 RMSDP=5.72D-04 MaxDP=8.72D-03              OVMax= 1.30D-02

 Cycle   2  Pass 1  IDiag  1:
 E= -214.193876374626     Delta-E=       -0.001599074500 Rises=F Damp=F
 DIIS: error= 8.78D-04 at cycle   2 NSaved=   2.
 NSaved= 2 IEnMin= 2 EnMin= -214.193876374626     IErMin= 2 ErrMin= 8.78D-04
 ErrMax= 8.78D-04 EMaxC= 1.00D+00 BMatC= 2.40D-04 BMatP= 1.30D-03
 IDIUse=1 WtCom= 1.00D+00 WtEn= 0.00D+00
 Coeff-Com:  0.214D+00 0.786D+00
 Coeff:      0.214D+00 0.786D+00
 Gap=     0.364 Goal=     0.100 Shift=    0.000
 RMSDP=2.50D-04 MaxDP=6.52D-03 DE=-1.60D-03 OVMax= 5.89D-03

 Cycle   3  Pass 1  IDiag  1:
 E= -214.194001985117     Delta-E=       -0.000125610491 Rises=F Damp=F
 DIIS: error= 6.00D-04 at cycle   3 NSaved=   3.
 NSaved= 3 IEnMin= 3 EnMin= -214.194001985117     IErMin= 3 ErrMin= 6.00D-04
 ErrMax= 6.00D-04 EMaxC= 1.00D+00 BMatC= 1.29D-04 BMatP= 2.40D-04
 IDIUse=1 WtCom= 1.00D+00 WtEn= 0.00D+00
 Coeff-Com: -0.182D-01 0.421D+00 0.597D+00
 Coeff:     -0.182D-01 0.421D+00 0.597D+00
 Gap=     0.360 Goal=     0.100 Shift=    0.000
 RMSDP=8.82D-05 MaxDP=2.14D-03 DE=-1.26D-04 OVMax= 2.42D-03

 Cycle   4  Pass 1  IDiag  1:
 E= -214.194131483526     Delta-E=       -0.000129498408 Rises=F Damp=F
 DIIS: error= 4.98D-05 at cycle   4 NSaved=   4.
 NSaved= 4 IEnMin= 4 EnMin= -214.194131483526     IErMin= 4 ErrMin= 4.98D-05
 ErrMax= 4.98D-05 EMaxC= 1.00D+00 BMatC= 8.26D-07 BMatP= 1.29D-04
 IDIUse=1 WtCom= 1.00D+00 WtEn= 0.00D+00
 Coeff-Com: -0.969D-02 0.123D+00 0.187D+00 0.700D+00
 Coeff:     -0.969D-02 0.123D+00 0.187D+00 0.700D+00
 Gap=     0.360 Goal=     0.100 Shift=    0.000
 RMSDP=9.33D-06 MaxDP=2.15D-04 DE=-1.29D-04 OVMax= 2.91D-04

 Cycle   5  Pass 1  IDiag  1:
 E= -214.194132184748     Delta-E=       -0.000000701222 Rises=F Damp=F
 DIIS: error= 2.14D-05 at cycle   5 NSaved=   5.
 NSaved= 5 IEnMin= 5 EnMin= -214.194132184748     IErMin= 5 ErrMin= 2.14D-05
 ErrMax= 2.14D-05 EMaxC= 1.00D+00 BMatC= 1.46D-07 BMatP= 8.26D-07
 IDIUse=1 WtCom= 1.00D+00 WtEn= 0.00D+00
 Coeff-Com: -0.359D-02 0.330D-01 0.514D-01 0.332D+00 0.587D+00
 Coeff:     -0.359D-02 0.330D-01 0.514D-01 0.332D+00 0.587D+00
 Gap=     0.360 Goal=     0.100 Shift=    0.000
 RMSDP=2.75D-06 MaxDP=8.30D-05 DE=-7.01D-07 OVMax= 1.12D-04

 Cycle   6  Pass 1  IDiag  1:
 E= -214.194132316411     Delta-E=       -0.000000131663 Rises=F Damp=F
 DIIS: error= 7.19D-06 at cycle   6 NSaved=   6.
 NSaved= 6 IEnMin= 6 EnMin= -214.194132316411     IErMin= 6 ErrMin= 7.19D-06
 ErrMax= 7.19D-06 EMaxC= 1.00D+00 BMatC= 8.32D-09 BMatP= 1.46D-07
 IDIUse=1 WtCom= 1.00D+00 WtEn= 0.00D+00
 Coeff-Com: -0.634D-03 0.274D-02 0.446D-02 0.801D-01 0.246D+00 0.667D+00
 Coeff:     -0.634D-03 0.274D-02 0.446D-02 0.801D-01 0.246D+00 0.667D+00
 Gap=     0.360 Goal=     0.100 Shift=    0.000
 RMSDP=7.08D-07 MaxDP=2.11D-05 DE=-1.32D-07 OVMax= 2.18D-05

 Cycle   7  Pass 1  IDiag  1:
 E= -214.194132322912     Delta-E=       -0.000000006501 Rises=F Damp=F
 DIIS: error= 2.25D-06 at cycle   7 NSaved=   7.
 NSaved= 7 IEnMin= 7 EnMin= -214.194132322912     IErMin= 7 ErrMin= 2.25D-06
 ErrMax= 2.25D-06 EMaxC= 1.00D+00 BMatC= 8.65D-10 BMatP= 8.32D-09
 IDIUse=1 WtCom= 1.00D+00 WtEn= 0.00D+00
 Coeff-Com: -0.851D-04-0.726D-03-0.946D-03 0.166D-01 0.790D-01 0.324D+00
 Coeff-Com:  0.582D+00
 Coeff:     -0.851D-04-0.726D-03-0.946D-03 0.166D-01 0.790D-01 0.324D+00
 Coeff:      0.582D+00
 Gap=     0.360 Goal=     0.100 Shift=    0.000
 RMSDP=2.37D-07 MaxDP=6.96D-06 DE=-6.50D-09 OVMax= 6.62D-06

 Cycle   8  Pass 1  IDiag  1:
 E= -214.194132323615     Delta-E=       -0.000000000704 Rises=F Damp=F
 DIIS: error= 4.36D-07 at cycle   8 NSaved=   8.
 NSaved= 8 IEnMin= 8 EnMin= -214.194132323615     IErMin= 8 ErrMin= 4.36D-07
 ErrMax= 4.36D-07 EMaxC= 1.00D+00 BMatC= 6.04D-11 BMatP= 8.65D-10
 IDIUse=1 WtCom= 1.00D+00 WtEn= 0.00D+00
 Coeff-Com:  0.312D-04-0.602D-03-0.819D-03-0.128D-02 0.757D-02 0.693D-01
 Coeff-Com:  0.255D+00 0.671D+00
 Coeff:      0.312D-04-0.602D-03-0.819D-03-0.128D-02 0.757D-02 0.693D-01
 Coeff:      0.255D+00 0.671D+00
 Gap=     0.360 Goal=     0.100 Shift=    0.000
 RMSDP=6.87D-08 MaxDP=1.32D-06 DE=-7.04D-10 OVMax= 1.59D-06

 Cycle   9  Pass 1  IDiag  1:
 E= -214.194132323675     Delta-E=       -0.000000000060 Rises=F Damp=F
 DIIS: error= 4.38D-08 at cycle   9 NSaved=   9.
 NSaved= 9 IEnMin= 9 EnMin= -214.194132323675     IErMin= 9 ErrMin= 4.38D-08
 ErrMax= 4.38D-08 EMaxC= 1.00D+00 BMatC= 6.13D-13 BMatP= 6.04D-11
 IDIUse=1 WtCom= 1.00D+00 WtEn= 0.00D+00
 Coeff-Com:  0.111D-04-0.129D-03-0.172D-03-0.915D-03-0.108D-02 0.556D-02
 Coeff-Com:  0.425D-01 0.161D+00 0.793D+00
 Coeff:      0.111D-04-0.129D-03-0.172D-03-0.915D-03-0.108D-02 0.556D-02
 Coeff:      0.425D-01 0.161D+00 0.793D+00
 Gap=     0.360 Goal=     0.100 Shift=    0.000
 RMSDP=1.06D-08 MaxDP=1.69D-07 DE=-6.02D-11 OVMax= 2.15D-07

 Cycle  10  Pass 1  IDiag  1:
 E= -214.194132323676     Delta-E=        0.000000000000 Rises=F Damp=F
 DIIS: error= 7.84D-09 at cycle  10 NSaved=  10.
 NSaved=10 IEnMin=10 EnMin= -214.194132323676     IErMin=10 ErrMin= 7.84D-09
 ErrMax= 7.84D-09 EMaxC= 1.00D+00 BMatC= 2.85D-14 BMatP= 6.13D-13
 IDIUse=1 WtCom= 1.00D+00 WtEn= 0.00D+00
 Coeff-Com:  0.213D-05-0.174D-04-0.232D-04-0.200D-03-0.507D-03-0.556D-03
 Coeff-Com:  0.451D-02 0.243D-01 0.222D+00 0.750D+00
 Coeff:      0.213D-05-0.174D-04-0.232D-04-0.200D-03-0.507D-03-0.556D-03
 Coeff:      0.451D-02 0.243D-01 0.222D+00 0.750D+00
 Gap=     0.360 Goal=     0.100 Shift=    0.000
 RMSDP=2.16D-09 MaxDP=4.06D-08 DE=-3.98D-13 OVMax= 4.99D-08

 SCF Done:  E(RB3LYP) =  -214.194132324     A.U. after   10 cycles
             Convg  =    0.2159D-08             -V/T =  2.0104
 KE= 2.119967157196D+02 PE=-8.790828900849D+02 EE= 2.563265472567D+02
 Leave Link  502 at Thu Jan 26 12:38:58 2017, MaxMem=  536870912 cpu:      31.4
 (Enter /opt/temp/g09-b1/g09/l508.exe)
 QCSCF skips out because SCF is already converged.
 Leave Link  508 at Thu Jan 26 12:38:58 2017, MaxMem=  536870912 cpu:       0.0
 (Enter /opt/temp/g09-b1/g09/l701.exe)
 Compute integral first derivatives.
 ... and contract with generalized density number  0.
 Leave Link  701 at Thu Jan 26 12:38:58 2017, MaxMem=  536870912 cpu:       0.5
 (Enter /opt/temp/g09-b1/g09/l702.exe)
 L702 exits ... SP integral derivatives will be done elsewhere.
 Leave Link  702 at Thu Jan 26 12:38:58 2017, MaxMem=  536870912 cpu:       0.0
 (Enter /opt/temp/g09-b1/g09/l703.exe)
 Compute integral first derivatives, UseDBF=F ICtDFT=           0.
 Integral derivatives from FoFDir, PRISM(SPDF).
 Calling FoFJK, ICntrl=      2127 FMM=F ISym2X=0 I1Cent= 0 IOpClX= 0 NMat=1 NMatS=1 NMatT=0.
 FoFCou: FMM=F IPFlag=           0 FMFlag=      100000 FMFlg1=         800
         NFxFlg=           0 DoJE=F BraDBF=F KetDBF=F FulRan=T
         Omega=  0.000000  0.000000  1.000000  0.000000  0.000000 ICntrl=    2127 IOpCl=  0
         NMat0=    1 NMatS0=    1 NMatT0=    0 NMatD0=    1 NMtDS0=    0 NMtDT0=    0
         I1Cent=           0 NGrid=           0.
 Symmetry not used in FoFCou.
 Leave Link  703 at Thu Jan 26 12:39:00 2017, MaxMem=  536870912 cpu:       9.5
 (Enter /opt/temp/g09-b1/g09/l716.exe)
 Dipole        = 5.72235263D+00 1.34237041D+00 2.64673478D+00
 -------------------------------------------------------------------
 Center     Atomic                   Forces (Hartrees/Bohr)
 Number     Number              X              Y              Z
 -------------------------------------------------------------------
      1        6          -0.000229934   -0.000182776    0.000129795
      2        1           0.000125142   -0.000055441   -0.000138243
      3        1           0.000096493    0.000033782   -0.000194066
      4        1           0.000181053    0.000092617    0.000105177
      5        6           0.002953727    0.000467967    0.000052743
      6        1          -0.000059237   -0.000155498    0.000393593
      7        1          -0.001004806   -0.000275441    0.000309962
      8        7          -0.004274837    0.001433217   -0.003381069
      9        1          -0.000027892    0.000181067   -0.000166555
     10        1           0.000663233    0.000080702   -0.000128555
     11        6           0.013045207   -0.002917148    0.006287831
     12        1          -0.001587937    0.000682412   -0.000493928
     13        1          -0.001894807    0.000039834   -0.000533963
     14        6          -0.009503928    0.001424010   -0.003930146
     15        1           0.000759371    0.000159828    0.000543440
     16        1          -0.000032360   -0.000600440    0.000977235
     17        1           0.000791511   -0.000408691    0.000166749
 -------------------------------------------------------------------
 Cartesian Forces:  Max     0.013045207 RMS     0.002726062
 Leave Link  716 at Thu Jan 26 12:39:00 2017, MaxMem=  536870912 cpu:       0.0
 (Enter /opt/temp/g09-b1/g09/l103.exe)

 GradGradGradGradGradGradGradGradGradGradGradGradGradGradGradGradGradGrad
 Berny optimization.
 Using GEDIIS/GDIIS optimizer.
 Internal  Forces:  Max     0.007934583 RMS     0.001119161
 Search for a local minimum.
 Step number   2 out of a maximum of  100
 All quantities printed in internal units (Hartrees-Bohrs-Radians)
 RMS Force = .11192D-02 SwitMx=.10000D-02 MixMth= 1
 Mixed Optimization -- RFO/linear search
 Update second derivatives using D2CorX and points    1    2
 DE= -4.95D-03 DEPred=-4.85D-03 R= 1.02D+00
 SS=  1.41D+00  RLast= 2.38D-01 DXNew= 5.0454D-01 7.1376D-01
 Trust test= 1.02D+00 RLast= 2.38D-01 DXMaxT set to 5.05D-01
 ITU=  1  0
 Use linear search instead of GDIIS.
     Eigenvalues ---    0.00230   0.00237   0.00523   0.00766   0.03355
     Eigenvalues ---    0.03768   0.03819   0.04832   0.04865   0.04947
     Eigenvalues ---    0.05311   0.05416   0.05658   0.05865   0.07712
     Eigenvalues ---    0.08105   0.08973   0.11980   0.12045   0.12593
     Eigenvalues ---    0.15782   0.16000   0.16000   0.16000   0.16000
     Eigenvalues ---    0.16065   0.21744   0.21952   0.22345   0.27334
     Eigenvalues ---    0.28070   0.30523   0.34265   0.34270   0.34375
     Eigenvalues ---    0.34646   0.34726   0.35161   0.37205   0.37230
     Eigenvalues ---    0.37230   0.37230   0.38924   0.43374   0.43527
 RFO step:  Lambda=-5.48510651D-04 EMin= 2.29892163D-03
 Quartic linear search produced a step of  0.09183.
 Iteration  1 RMS(Cart)=  0.02412984 RMS(Int)=  0.00029941
 Iteration  2 RMS(Cart)=  0.00039578 RMS(Int)=  0.00010082
 Iteration  3 RMS(Cart)=  0.00000013 RMS(Int)=  0.00010082
 Variable       Old X    -DE/DX   Delta X   Delta X   Delta X     New X
                                 (Linear)    (Quad)   (Total)
    R1        2.06927   0.00009   0.00004   0.00028   0.00032   2.06960
    R2        2.06833   0.00021  -0.00004   0.00067   0.00063   2.06896
    R3        2.06697  -0.00018   0.00000  -0.00058  -0.00057   2.06640
    R4        2.87261   0.00008   0.00030   0.00014   0.00044   2.87305
    R5        2.06292  -0.00012   0.00016  -0.00044  -0.00029   2.06263
    R6        2.05993   0.00069  -0.00012   0.00222   0.00210   2.06203
    R7        2.92095  -0.00209  -0.00073  -0.00790  -0.00863   2.91232
    R8        1.93603   0.00017  -0.00012   0.00047   0.00035   1.93639
    R9        1.93750   0.00031  -0.00016   0.00086   0.00070   1.93820
   R10        2.84700   0.00377   0.00635   0.00865   0.01499   2.86200
   R11        2.06243   0.00054   0.00371  -0.00009   0.00362   2.06605
   R12        2.06312   0.00052   0.00378  -0.00018   0.00360   2.06672
   R13        2.91070  -0.00793   0.00005  -0.03033  -0.03028   2.88042
   R14        2.06814   0.00039   0.00424  -0.00077   0.00347   2.07161
   R15        2.06120   0.00106   0.00360   0.00149   0.00509   2.06629
   R16        2.06787   0.00037   0.00421  -0.00080   0.00341   2.07128
    A1        1.90924  -0.00012  -0.00025  -0.00096  -0.00121   1.90802
    A2        1.87205   0.00009   0.00000   0.00103   0.00103   1.87308
    A3        1.95190   0.00012  -0.00029   0.00100   0.00071   1.95260
    A4        1.87290   0.00007   0.00007   0.00028   0.00034   1.87325
    A5        1.95362   0.00005  -0.00011   0.00017   0.00006   1.95368
    A6        1.90062  -0.00020   0.00062  -0.00151  -0.00089   1.89972
    A7        1.95509   0.00030  -0.00061   0.00076   0.00014   1.95523
    A8        1.95915  -0.00024  -0.00026  -0.00252  -0.00277   1.95638
    A9        1.94226  -0.00063   0.00068  -0.00260  -0.00191   1.94035
   A10        1.89679  -0.00026   0.00001  -0.00341  -0.00341   1.89339
   A11        1.85976   0.00009   0.00082  -0.00031   0.00051   1.86027
   A12        1.84475   0.00079  -0.00059   0.00855   0.00796   1.85271
   A13        1.91369  -0.00003  -0.00382   0.00097  -0.00302   1.91066
   A14        1.89316   0.00025  -0.00409   0.00487   0.00060   1.89375
   A15        2.01525   0.00002   0.00548  -0.00164   0.00382   2.01908
   A16        1.84127  -0.00012  -0.00269  -0.00132  -0.00422   1.83705
   A17        1.89497   0.00001   0.00235  -0.00147   0.00096   1.89593
   A18        1.89758  -0.00015   0.00248  -0.00142   0.00112   1.89870
   A19        1.86978  -0.00061  -0.00375  -0.01161  -0.01543   1.85435
   A20        1.86693  -0.00051  -0.00401  -0.00935  -0.01342   1.85351
   A21        1.94834  -0.00145   0.00346  -0.00999  -0.00644   1.94191
   A22        1.89944  -0.00043  -0.00103   0.00023  -0.00140   1.89804
   A23        1.93848   0.00143   0.00256   0.01394   0.01641   1.95489
   A24        1.93787   0.00144   0.00250   0.01521   0.01764   1.95551
   A25        1.94259   0.00102   0.00293   0.00733   0.01014   1.95273
   A26        1.90489  -0.00115  -0.00053  -0.01091  -0.01139   1.89350
   A27        1.94435   0.00100   0.00310   0.00711   0.01009   1.95444
   A28        1.88372  -0.00023  -0.00247  -0.00369  -0.00612   1.87760
   A29        1.90210  -0.00049  -0.00078   0.00317   0.00213   1.90424
   A30        1.88430  -0.00022  -0.00242  -0.00369  -0.00606   1.87823
    D1       -3.13746   0.00002  -0.00002  -0.00124  -0.00127  -3.13873
    D2       -0.99777  -0.00028  -0.00066  -0.00701  -0.00767  -1.00544
    D3        1.06581   0.00014  -0.00111   0.00040  -0.00071   1.06510
    D4        0.99622   0.00005   0.00061  -0.00086  -0.00025   0.99597
    D5        3.13591  -0.00025  -0.00003  -0.00662  -0.00665   3.12926
    D6       -1.08370   0.00017  -0.00048   0.00079   0.00031  -1.08339
    D7       -1.07167   0.00007   0.00020  -0.00033  -0.00014  -1.07181
    D8        1.06802  -0.00023  -0.00044  -0.00610  -0.00654   1.06148
    D9        3.13160   0.00019  -0.00089   0.00131   0.00042   3.13202
   D10        2.03894  -0.00004  -0.00463  -0.03665  -0.04117   1.99777
   D11        0.03651  -0.00002   0.00348  -0.03826  -0.03489   0.00162
   D12       -2.09751  -0.00004  -0.00048  -0.03902  -0.03950  -2.13701
   D13       -0.09702  -0.00009  -0.00481  -0.03583  -0.04053  -0.13755
   D14       -2.09945  -0.00007   0.00330  -0.03744  -0.03425  -2.13370
   D15        2.04971  -0.00008  -0.00066  -0.03820  -0.03886   2.01085
   D16       -2.11297  -0.00020  -0.00492  -0.03577  -0.04059  -2.15355
   D17        2.16779  -0.00017   0.00318  -0.03738  -0.03431   2.13349
   D18        0.03377  -0.00019  -0.00077  -0.03815  -0.03892  -0.00515
   D19       -0.98138   0.00045   0.00131  -0.01224  -0.01104  -0.99242
   D20        1.05299  -0.00061  -0.00420  -0.02238  -0.02647   1.02652
   D21       -3.10710  -0.00004  -0.00157  -0.01576  -0.01733  -3.12444
   D22        1.17523   0.00043   0.00185  -0.01331  -0.01151   1.16372
   D23       -3.07358  -0.00062  -0.00367  -0.02344  -0.02694  -3.10052
   D24       -0.95049  -0.00005  -0.00103  -0.01682  -0.01781  -0.96830
   D25       -3.11304   0.00022   0.00113  -0.01637  -0.01539  -3.12843
   D26       -1.07867  -0.00083  -0.00438  -0.02650  -0.03082  -1.10949
   D27        1.04442  -0.00026  -0.00174  -0.01988  -0.02169   1.02274
   D28        1.06066   0.00036   0.00195   0.01078   0.01280   1.07346
   D29        3.13794  -0.00003   0.00038   0.00374   0.00412  -3.14113
   D30       -1.06618  -0.00043  -0.00103  -0.00345  -0.00455  -1.07073
   D31       -1.02490   0.00114   0.00276   0.02275   0.02567  -0.99923
   D32        1.05238   0.00075   0.00119   0.01571   0.01699   1.06937
   D33        3.13145   0.00035  -0.00022   0.00853   0.00832   3.13977
   D34       -3.14099  -0.00028   0.00077   0.00253   0.00329  -3.13770
   D35       -1.06371  -0.00067  -0.00080  -0.00451  -0.00539  -1.06911
   D36        1.01536  -0.00106  -0.00221  -0.01170  -0.01407   1.00129
         Item               Value     Threshold  Converged?
 Maximum Force            0.007935     0.000450     NO 
 RMS     Force            0.001119     0.000300     NO 
 Maximum Displacement     0.076266     0.001800     NO 
 RMS     Displacement     0.024126     0.001200     NO 
 Predicted change in Energy=-3.069760D-04
 GradGradGradGradGradGradGradGradGradGradGradGradGradGradGradGradGradGrad

 Leave Link  103 at Thu Jan 26 12:39:00 2017, MaxMem=  536870912 cpu:       0.0
 (Enter /opt/temp/g09-b1/g09/l202.exe)
                          Input orientation:                          
 ---------------------------------------------------------------------
 Center     Atomic      Atomic             Coordinates (Angstroms)
 Number     Number       Type             X           Y           Z
 ---------------------------------------------------------------------
      1          6           0        1.118101    0.157016   -0.043726
      2          1           0        1.453285   -0.884453   -0.092934
      3          1           0        1.447101    0.686369   -0.943858
      4          1           0        0.024685    0.147857   -0.052596
      5          6           0        1.593184    0.845630    1.225754
      6          1           0        1.258033    1.883047    1.278691
      7          1           0        1.256238    0.326943    2.124698
      8          7           0        3.132229    0.876214    1.299862
      9          1           0        3.457580    1.846409    1.246385
     10          1           0        3.507614    0.419112    0.461945
     11          6           0        3.743450    0.227782    2.524469
     12          1           0        3.306687    0.734640    3.389135
     13          1           0        3.406033   -0.812514    2.519349
     14          6           0        5.263739    0.336154    2.506679
     15          1           0        5.599107    1.379804    2.515812
     16          1           0        5.656218   -0.144719    3.406854
     17          1           0        5.701279   -0.173687    1.640653
 ---------------------------------------------------------------------
                    Distance matrix (angstroms):
                    1          2          3          4          5
     1  C    0.000000
     2  H    1.095184   0.000000
     3  H    1.094848   1.786502   0.000000
     4  H    1.093491   1.763006   1.762842   0.000000
     5  C    1.520352   2.179839   2.180348   2.140387   0.000000
     6  H    2.178887   3.094920   2.531305   2.510848   1.091495
     7  H    2.179454   2.534601   3.095424   2.507869   1.091179
     8  N    2.525705   2.803334   2.812468   3.466479   1.541131
     9  H    3.160949   3.642607   3.191376   4.044404   2.116118
    10  H    2.456454   2.495484   2.508669   3.531165   2.104842
    11  C    3.673295   3.651400   4.184831   4.525138   2.586898
    12  H    4.111945   4.263961   4.715423   4.791802   2.761997
    13  H    3.569871   3.262273   4.251808   4.355541   2.776554
    14  C    4.870623   4.771522   5.157089   5.833784   3.920880
    15  H    5.303382   5.396319   5.448791   6.260080   4.242289
    16  H    5.708945   5.519091   6.110324   6.615706   4.716591
    17  H    4.894080   4.642840   5.051477   5.932470   4.252951
                    6          7          8          9         10
     6  H    0.000000
     7  H    1.771212   0.000000
     8  N    2.127621   2.121649   0.000000
     9  H    2.200089   2.815336   1.024691   0.000000
    10  H    2.805492   2.800345   1.025651   1.629425   0.000000
    11  C    3.235609   2.521086   1.514503   2.082109   2.084762
    12  H    3.157498   2.443226   2.101319   2.418714   2.950994
    13  H    3.663221   2.464900   2.100933   2.948384   2.400028
    14  C    4.466151   4.025674   2.508267   2.670472   2.696626
    15  H    4.541877   4.485755   2.796002   2.532846   3.084744
    16  H    5.290080   4.607191   3.442708   3.669636   3.688752
    17  H    4.909542   4.499257   2.796149   3.044737   2.559869
                   11         12         13         14         15
    11  C    0.000000
    12  H    1.093304   0.000000
    13  H    1.093660   1.777662   0.000000
    14  C    1.524250   2.183477   2.184186   0.000000
    15  H    2.184192   2.536557   3.100943   1.096249   0.000000
    16  H    2.139168   2.508762   2.509372   1.093432   1.766744
    17  H    2.185270   3.101020   2.539362   1.096075   1.785967
                   16         17
    16  H    0.000000
[...]
 ! A10   A(6,5,7)              108.562          -DE/DX =    0.0                 !
 ! A11   A(6,5,8)              106.1317         -DE/DX =    0.0                 !
 ! A12   A(7,5,8)              106.1368         -DE/DX =    0.0                 !
 ! A13   A(5,8,9)              108.8652         -DE/DX =    0.0                 !
 ! A14   A(5,8,10)             108.8794         -DE/DX =    0.0                 !
 ! A15   A(5,8,11)             115.5721         -DE/DX =    0.0                 !
 ! A16   A(9,8,10)             105.3313         -DE/DX =    0.0                 !
 ! A17   A(9,8,11)             108.8541         -DE/DX =    0.0                 !
 ! A18   A(10,8,11)            108.8507         -DE/DX =    0.0                 !
 ! A19   A(8,11,12)            106.136          -DE/DX =    0.0                 !
 ! A20   A(8,11,13)            106.1325         -DE/DX =    0.0                 !
 ! A21   A(8,11,14)            111.1655         -DE/DX =    0.0                 !
 ! A22   A(12,11,13)           108.5686         -DE/DX =    0.0                 !
 ! A23   A(12,11,14)           112.229          -DE/DX =    0.0                 !
 ! A24   A(13,11,14)           112.2417         -DE/DX =    0.0                 !
 ! A25   A(11,14,15)           111.9822         -DE/DX =    0.0                 !
 ! A26   A(11,14,16)           108.8153         -DE/DX =    0.0                 !
 ! A27   A(11,14,17)           111.995          -DE/DX =    0.0                 !
 ! A28   A(15,14,16)           107.3824         -DE/DX =    0.0                 !
 ! A29   A(15,14,17)           109.077          -DE/DX =    0.0                 !
 ! A30   A(16,14,17)           107.379          -DE/DX =    0.0                 !
 ! D1    D(2,1,5,6)           -179.6851         -DE/DX =    0.0                 !
 ! D2    D(2,1,5,7)            -57.1155         -DE/DX =    0.0                 !
 ! D3    D(2,1,5,8)             61.6099         -DE/DX =    0.0                 !
 ! D4    D(3,1,5,6)             57.3696         -DE/DX =    0.0                 !
 ! D5    D(3,1,5,7)            179.9392         -DE/DX =    0.0                 !
 ! D6    D(3,1,5,8)            -61.3354         -DE/DX =    0.0                 !
 ! D7    D(4,1,5,6)            -61.1511         -DE/DX =    0.0                 !
 ! D8    D(4,1,5,7)             61.4185         -DE/DX =    0.0                 !
 ! D9    D(4,1,5,8)           -179.8561         -DE/DX =    0.0                 !
 ! D10   D(1,5,8,9)             57.2755         -DE/DX =    0.0                 !
 ! D11   D(1,5,8,10)           -57.0643         -DE/DX =    0.0                 !
 ! D12   D(1,5,8,11)          -179.8978         -DE/DX =    0.0                 !
 ! D13   D(6,5,8,9)            -65.019          -DE/DX =    0.0                 !
 ! D14   D(6,5,8,10)          -179.3588         -DE/DX =    0.0                 !
 ! D15   D(6,5,8,11)            57.8077         -DE/DX =    0.0                 !
 ! D16   D(7,5,8,9)            179.5988         -DE/DX =    0.0                 !
 ! D17   D(7,5,8,10)            65.259          -DE/DX =    0.0                 !
 ! D18   D(7,5,8,11)           -57.5745         -DE/DX =    0.0                 !
 ! D19   D(5,8,11,12)          -57.707          -DE/DX =    0.0                 !
 ! D20   D(5,8,11,13)           57.6826         -DE/DX =    0.0                 !
 ! D21   D(5,8,11,14)         -180.0055         -DE/DX =    0.0                 !
 ! D22   D(9,8,11,12)           65.1256         -DE/DX =    0.0                 !
 ! D23   D(9,8,11,13)         -179.4847         -DE/DX =    0.0                 !
 ! D24   D(9,8,11,14)          -57.1729         -DE/DX =    0.0                 !
 ! D25   D(10,8,11,12)         179.4443         -DE/DX =    0.0                 !
 ! D26   D(10,8,11,13)         -65.166          -DE/DX =    0.0                 !
 ! D27   D(10,8,11,14)          57.1458         -DE/DX =    0.0                 !
 ! D28   D(8,11,14,15)          61.3158         -DE/DX =    0.0                 !
 ! D29   D(8,11,14,16)         179.8639         -DE/DX =    0.0                 !
 ! D30   D(8,11,14,17)         -61.5845         -DE/DX =    0.0                 !
 ! D31   D(12,11,14,15)        -57.3817         -DE/DX =    0.0                 !
 ! D32   D(12,11,14,16)         61.1664         -DE/DX =    0.0                 !
 ! D33   D(12,11,14,17)        179.7181         -DE/DX =    0.0                 !
 ! D34   D(13,11,14,15)       -179.9827         -DE/DX =    0.0                 !
 ! D35   D(13,11,14,16)        -61.4347         -DE/DX =    0.0                 !
 ! D36   D(13,11,14,17)         57.117          -DE/DX =    0.0                 !
 --------------------------------------------------------------------------------
 GradGradGradGradGradGradGradGradGradGradGradGradGradGradGradGradGradGrad

 Largest change from initial coordinates is atom    7       0.470 Angstoms.
 Leave Link  103 at Thu Jan 26 12:41:24 2017, MaxMem=  536870912 cpu:       0.0
 (Enter /opt/temp/g09-b1/g09/l202.exe)
                          Input orientation:                          
 ---------------------------------------------------------------------
 Center     Atomic      Atomic             Coordinates (Angstroms)
 Number     Number       Type             X           Y           Z
 ---------------------------------------------------------------------
      1          6           0        1.092101    0.514194   -0.195490
      2          1           0        1.432907   -0.331261   -0.801984
      3          1           0        1.383551    1.448021   -0.687242
      4          1           0       -0.000494    0.482699   -0.176329
      5          6           0        1.609521    0.436601    1.233270
      6          1           0        1.266755    1.275931    1.842735
      7          1           0        1.319854   -0.493408    1.727804
      8          7           0        3.128627    0.479817    1.271016
      9          1           0        3.447724    1.338572    0.808707
     10          1           0        3.496993   -0.288904    0.699608
     11          6           0        3.753078    0.405890    2.655288
     12          1           0        3.340255    1.245084    3.219782
     13          1           0        3.393157   -0.524028    3.101361
     14          6           0        5.271704    0.456771    2.576338
     15          1           0        5.627792    1.390527    2.128955
     16          1           0        5.679392    0.403662    3.589276
     17          1           0        5.681644   -0.388566    2.014078
 ---------------------------------------------------------------------
                    Distance matrix (angstroms):
                    1          2          3          4          5
     1  C    0.000000
     2  H    1.094887   0.000000
     3  H    1.094896   1.783661   0.000000
     4  H    1.093217   1.763125   1.763082   0.000000
     5  C    1.521545   2.182444   2.182292   2.140384   0.000000
     6  H    2.182913   3.099228   2.538512   2.512322   1.092434
     7  H    2.183161   2.537498   3.099298   2.514324   1.092423
     8  N    2.509832   2.798329   2.795977   3.447639   1.520189
     9  H    2.690162   3.072810   2.551599   3.686872   2.091123
    10  H    2.688805   2.552847   3.067067   3.687147   2.091340
    11  C    3.901212   4.228394   4.227671   4.702473   2.572530
    12  H    4.153610   4.722017   4.374325   4.824460   2.755960
    13  H    4.152347   4.372166   4.720276   4.824274   2.755708
    14  C    5.015517   5.174014   5.172163   5.947598   3.900746
    15  H    5.171411   5.399261   5.093904   6.149479   4.225959
    16  H    5.948101   6.152716   6.150898   6.815214   4.702733
    17  H    5.173110   5.097573   5.398498   6.151721   4.227616
                    6          7          8          9         10
     6  H    0.000000
     7  H    1.773863   0.000000
     8  N    2.104098   2.104158   0.000000
     9  H    2.414490   2.954441   1.026164   0.000000
    10  H    2.954558   2.416391   1.026223   1.631873   0.000000
    11  C    2.756631   2.754912   1.520399   2.091172   2.091172
    12  H    2.489299   3.054566   2.104308   2.415279   2.954483
    13  H    3.057053   2.487203   2.104244   2.954406   2.415467
    14  C    4.153169   4.152104   2.509417   2.688679   2.688447
    15  H    4.371921   4.718947   2.794866   2.549206   3.066566
    16  H    4.825207   4.824457   3.447685   3.685914   3.686827
    17  H    4.721350   4.372431   2.797163   3.070231   2.551560
                   11         12         13         14         15
    11  C    0.000000
    12  H    1.092394   0.000000
    13  H    1.092369   1.773860   0.000000
    14  C    1.521528   2.183107   2.183244   0.000000
    15  H    2.181993   2.538481   3.099143   1.094920   0.000000
    16  H    2.140800   2.513182   2.515063   1.093194   1.763265
    17  H    2.182127   3.099135   2.537263   1.094889   1.783611
                   16         17
    16  H    0.000000
    17  H    1.763201   0.000000
 Symmetry turned off by external request.
 Stoichiometry    C4H12N(1+)
 Framework group  C1[X(C4H12N)]
 Deg. of freedom    45
 Full point group                 C1      NOp   1
 Rotational constants (GHZ):     16.6612823      1.9883176      1.8782581
 Leave Link  202 at Thu Jan 26 12:41:24 2017, MaxMem=  536870912 cpu:       0.0
 (Enter /opt/temp/g09-b1/g09/l601.exe)
 Copying SCF densities to generalized density rwf, IOpCl= 0 IROHF=0.

 **********************************************************************

            Population analysis using the SCF density.

 **********************************************************************

 Alpha  occ. eigenvalues --  -14.64563 -10.42733 -10.42732 -10.35729 -10.35727
 Alpha  occ. eigenvalues --   -1.19250  -0.97118  -0.92503  -0.83944  -0.81152
 Alpha  occ. eigenvalues --   -0.78271  -0.68659  -0.67213  -0.63868  -0.61723
 Alpha  occ. eigenvalues --   -0.58878  -0.55876  -0.55758  -0.54514  -0.54280
 Alpha  occ. eigenvalues --   -0.53597
 Alpha virt. eigenvalues --   -0.17658  -0.13417  -0.12791  -0.12278  -0.09934
 Alpha virt. eigenvalues --   -0.08655  -0.07994  -0.07827  -0.07159  -0.07018
 Alpha virt. eigenvalues --   -0.05784  -0.04703  -0.04563  -0.03622  -0.01711
 Alpha virt. eigenvalues --   -0.00552   0.00462   0.01272   0.01547   0.02464
 Alpha virt. eigenvalues --    0.02830   0.03375   0.03540   0.05392   0.06774
 Alpha virt. eigenvalues --    0.07040   0.08675   0.09776   0.10760   0.11777
 Alpha virt. eigenvalues --    0.11929   0.13350   0.17249   0.18317   0.19174
 Alpha virt. eigenvalues --    0.26058   0.41302   0.44137   0.44454   0.45999
 Alpha virt. eigenvalues --    0.46349   0.51133   0.52316   0.52526   0.52859
 Alpha virt. eigenvalues --    0.55771   0.56761   0.63228   0.68534   0.68680
 Alpha virt. eigenvalues --    0.69765   0.74978   0.76297   0.77035   0.78605
 Alpha virt. eigenvalues --    0.82254   0.82872   0.84140   0.88808   0.90294
 Alpha virt. eigenvalues --    0.91012   0.94274   0.94474   0.94908   1.05502
 Alpha virt. eigenvalues --    1.07834   1.13690   1.22224   1.28825   1.30504
 Alpha virt. eigenvalues --    1.37658   1.44287   1.45440   1.46105   1.49001
 Alpha virt. eigenvalues --    1.64221   1.66088   1.67370   1.69264   1.75049
 Alpha virt. eigenvalues --    1.76661   1.87417   1.87447   1.88737   1.88870
 Alpha virt. eigenvalues --    1.90164   1.92825   1.95829   1.96430   1.96601
 Alpha virt. eigenvalues --    2.01686   2.05737   2.06342   2.09210   2.11201
 Alpha virt. eigenvalues --    2.12970   2.16827   2.23443   2.25344   2.27802
 Alpha virt. eigenvalues --    2.32239   2.33687   2.34963   2.48519   2.49766
 Alpha virt. eigenvalues --    2.55040   2.55774   2.57460   2.62292   2.64613
 Alpha virt. eigenvalues --    2.66168   2.68674   2.70583   2.71289   2.73047
 Alpha virt. eigenvalues --    2.77316   2.77742   3.06829   3.08302   3.12130
 Alpha virt. eigenvalues --    3.12385   3.13302   3.16549   3.23142   3.30121
 Alpha virt. eigenvalues --    3.31102   3.33202   3.35106   3.38387   3.97433
 Alpha virt. eigenvalues --    4.22995   4.23100   4.40545   4.45922
          Condensed to atoms (all electrons):
              1          2          3          4          5          6
     1  C    5.199979   0.432926   0.432609   0.390105   0.158225  -0.011064
     2  H    0.432926   0.514226  -0.030242  -0.019707  -0.077082   0.003976
     3  H    0.432609  -0.030242   0.514536  -0.019718  -0.077074  -0.005150
     4  H    0.390105  -0.019707  -0.019718   0.468180  -0.021037  -0.002276
     5  C    0.158225  -0.077082  -0.077074  -0.021037   5.294339   0.383426
     6  H   -0.011064   0.003976  -0.005150  -0.002276   0.383426   0.499999
     7  H   -0.011355  -0.005180   0.003980  -0.002241   0.383714  -0.026916
     8  N   -0.038081   0.001244   0.001391  -0.000754   0.116756  -0.038122
     9  H    0.000053  -0.000774   0.003738  -0.000041  -0.022630  -0.005985
    10  H    0.000455   0.003743  -0.000788  -0.000040  -0.022971   0.004624
    11  C    0.003410   0.000544   0.000610  -0.001242  -0.039896  -0.003705
    12  H   -0.001370  -0.000001   0.000002  -0.000001  -0.003618   0.003142
    13  H   -0.001528   0.000002  -0.000001  -0.000001  -0.003581  -0.000662
    14  C   -0.022156  -0.001291  -0.001298   0.000218   0.003444  -0.001443
    15  H   -0.001313   0.000001  -0.000001   0.000000   0.000598   0.000002
    16  H    0.000218   0.000000   0.000000   0.000000  -0.001240  -0.000001
    17  H   -0.001279  -0.000001   0.000001   0.000000   0.000574  -0.000001
              7          8          9         10         11         12
     1  C   -0.011355  -0.038081   0.000053   0.000455   0.003410  -0.001370
     2  H   -0.005180   0.001244  -0.000774   0.003743   0.000544  -0.000001
     3  H    0.003980   0.001391   0.003738  -0.000788   0.000610   0.000002
     4  H   -0.002241  -0.000754  -0.000041  -0.000040  -0.001242  -0.000001
     5  C    0.383714   0.116756  -0.022630  -0.022971  -0.039896  -0.003618
     6  H   -0.026916  -0.038122  -0.005985   0.004624  -0.003705   0.003142
     7  H    0.500096  -0.038334   0.004621  -0.005960  -0.003546  -0.000667
     8  N   -0.038334   6.867975   0.315658   0.315661   0.116821  -0.038126
     9  H    0.004621   0.315658   0.364192  -0.029517  -0.022808  -0.005973
    10  H   -0.005960   0.315661  -0.029517   0.364301  -0.022883   0.004622
    11  C   -0.003546   0.116821  -0.022808  -0.022883   5.294200   0.383549
    12  H   -0.000667  -0.038126  -0.005973   0.004622   0.383549   0.499993
    13  H    0.003161  -0.038231   0.004622  -0.005975   0.383475  -0.026910
    14  C   -0.001457  -0.038213   0.000285   0.000251   0.158465  -0.011337
    15  H   -0.000001   0.001356   0.003762  -0.000788  -0.077249  -0.005154
    16  H   -0.000001  -0.000757  -0.000040  -0.000041  -0.021043  -0.002269
    17  H    0.000002   0.001296  -0.000781   0.003747  -0.076897   0.003978
             13         14         15         16         17
     1  C   -0.001528  -0.022156  -0.001313   0.000218  -0.001279
     2  H    0.000002  -0.001291   0.000001   0.000000  -0.000001
     3  H   -0.000001  -0.001298  -0.000001   0.000000   0.000001
     4  H   -0.000001   0.000218   0.000000   0.000000   0.000000
     5  C   -0.003581   0.003444   0.000598  -0.001240   0.000574
     6  H   -0.000662  -0.001443   0.000002  -0.000001  -0.000001
     7  H    0.003161  -0.001457  -0.000001  -0.000001   0.000002
     8  N   -0.038231  -0.038213   0.001356  -0.000757   0.001296
     9  H    0.004622   0.000285   0.003762  -0.000040  -0.000781
    10  H   -0.005975   0.000251  -0.000788  -0.000041   0.003747
    11  C    0.383475   0.158465  -0.077249  -0.021043  -0.076897
    12  H   -0.026910  -0.011337  -0.005154  -0.002269   0.003978
    13  H    0.500037  -0.011087   0.003981  -0.002234  -0.005184
    14  C   -0.011087   5.199681   0.432810   0.390144   0.432618
    15  H    0.003981   0.432810   0.514620  -0.019696  -0.030273
    16  H   -0.002234   0.390144  -0.019696   0.468065  -0.019696
    17  H   -0.005184   0.432618  -0.030273  -0.019696   0.514330
 Mulliken atomic charges:
              1
     1  C   -0.529833
     2  H    0.177617
     3  H    0.177407
     4  H    0.208555
     5  C   -0.071947
     6  H    0.200156
     7  H    0.200084
     8  N   -0.507542
     9  H    0.391619
    10  H    0.391558
    11  C   -0.071803
    12  H    0.200142
    13  H    0.200116
    14  C   -0.529634
    15  H    0.177346
    16  H    0.208593
    17  H    0.177566
 Sum of Mulliken atomic charges =   1.00000
 Mulliken charges with hydrogens summed into heavy atoms:
              1
     1  C    0.033746
     5  C    0.328293
     8  N    0.275636
    11  C    0.328455
    14  C    0.033871
 Sum of Mulliken charges with hydrogens summed into heavy atoms =   1.00000
 Electronic spatial extent (au):  <R**2>=           2382.1564
 Charge=              1.0000 electrons
 Dipole moment (field-independent basis, Debye):
    X=             14.6040    Y=              2.2486    Z=              6.7431  Tot=             16.2420
 Quadrupole moment (field-independent basis, Debye-Ang):
   XX=             22.4274   YY=            -27.9601   ZZ=            -16.2037
   XY=              6.7578   XZ=             24.8753   YZ=              3.0658
 Traceless Quadrupole moment (field-independent basis, Debye-Ang):
   XX=             29.6729   YY=            -20.7146   ZZ=             -8.9582
   XY=              6.7578   XZ=             24.8753   YZ=              3.0658
 Octapole moment (field-independent basis, Debye-Ang**2):
  XXX=            -64.0453  YYY=            -39.2397  ZZZ=           -100.0116  XYY=            -82.5894
  XXY=             10.0797  XXZ=             55.7562  XZZ=            -33.3795  YZZ=             -7.8718
  YYZ=            -43.0702  XYZ=             11.2235
 Hexadecapole moment (field-independent basis, Debye-Ang**3):
 XXXX=          -1270.2409 YYYY=            -94.6849 ZZZZ=           -591.5094 XXXY=            -29.7868
 XXXZ=           -102.9552 YYYX=           -112.9147 YYYZ=            -57.8659 ZZZX=           -388.1030
 ZZZY=            -43.7770 XXYY=           -345.8439 XXZZ=           -221.3440 YYZZ=           -126.5284
 XXYZ=             25.4668 YYXZ=           -176.6827 ZZXY=            -16.9943
 N-N= 1.963771847618D+02 E-N=-8.787018641289D+02  KE= 2.120123160188D+02
 No NMR shielding tensors so no spin-rotation constants.
 Leave Link  601 at Thu Jan 26 12:41:24 2017, MaxMem=  536870912 cpu:       0.5
 (Enter /opt/temp/g09-b1/g09/l9999.exe)
 1\1\GINC-CN045\FOpt\RB3LYP\6-31+G(d,p)\C4H12N1(1+)\BJANESKO\26-Jan-201
 7\0\\#p opt=maxcycles=100 b3lyp/6-31+g(d,p) nosymm geom=connectivity s
 cf=(fermi,xqc)\\Title Card Required\\1,1\C,1.0921012352,0.5141936572,-
 0.1954896622\H,1.432906659,-0.3312608842,-0.80198381\H,1.3835506285,1.
 448020794,-0.6872420024\H,-0.0004937989,0.4826985673,-0.176329397\C,1.
 6095213925,0.4366009815,1.2332697586\H,1.266755367,1.275931304,1.84273
 53452\H,1.3198543361,-0.4934082,1.7278037373\N,3.1286273703,0.47981712
 39,1.2710159383\H,3.4477241777,1.3385724297,0.8087071874\H,3.496993475
 ,-0.2889039614,0.699607779\C,3.7530777407,0.4058897287,2.6552879659\H,
 3.3402549985,1.245084237,3.219782396\H,3.3931572131,-0.5240276049,3.10
 13606271\C,5.2717043666,0.4567714724,2.5763377838\H,5.6277922615,1.390
 5270303,2.1289549606\H,5.679392498,0.4036617285,3.5892756034\H,5.68164
 36493,-0.3885659839,2.0140775992\\Version=EM64L-G09RevB.01\HF=-214.198
 6023\RMSD=2.429e-09\RMSF=5.595e-06\Dipole=0.1060108,0.01463,-0.158807\
 Quadrupole=22.061058,-15.4008195,-6.6602385,5.0242613,18.4941805,2.279
 3741\PG=C01 [X(C4H12N1)]\\@


 IF YOU GIVE A BOY AND A PIG EVERYTHING THEY WANT,
 YOU'LL GET A BAD BOY AND A GOOD PIG.
 Job cpu time:  0 days  0 hours 13 minutes 17.3 seconds.
 File lengths (MBytes):  RWF=     14 Int=      0 D2E=      0 Chk=      3 Scr=      1
 Normal termination of Gaussian 09 at Thu Jan 26 12:41:24 2017.
